/*--------------------------------*- C++ -*----------------------------------*\
| =========                 |                                                 |
| \\      /  F ield         | OpenFOAM: The Open Source CFD Toolbox           |
|  \\    /   O peration     | Version:  2412                                  |
|   \\  /    A nd           | Website:  www.openfoam.com                      |
|    \\/     M anipulation  |                                                 |
\*---------------------------------------------------------------------------*/
FoamFile
{
    version     2.0;
    format      ascii;
    arch        "LSB;label=32;scalar=64";
    class       volScalarField;
    location    "1";
    object      p;
}
// * * * * * * * * * * * * * * * * * * * * * * * * * * * * * * * * * * * * * //

dimensions      [0 2 -2 0 0 0 0];

internalField   nonuniform List<scalar> 
400
(
-0.039614278657923614191
-0.044494924767821263101
-0.050169413102161025675
-0.054173601685591883659
-0.055139527470956989363
-0.052496962644435832268
-0.046253105963345850227
-0.0368144021204584726
-0.024856861889947203664
-0.011241493776373144564
0.0030461405677931017305
0.016950118129278365919
0.029405179232065925543
0.039414603916510984605
0.046152306348480845455
0.049095989022853558925
0.048197367135236091062
0.044077758802268836302
0.038231059376184234333
0.033254966305813087046
-0.034775708541439756538
-0.03979131753066295768
-0.044180722085531289045
-0.046793258752381008958
-0.047006438276555054245
-0.04442230559366940057
-0.039021211910973060966
-0.031096974946920315913
-0.021164810837596730736
-0.0099003598396929758108
0.0019093788781655459102
0.013415750220197936865
0.02376538081860871468
0.032169507949917935941
0.037987588555873239016
0.040828664368725495204
0.040677013938076177213
0.037970951684366142931
0.03343548050154228346
0.028330707616816049738
-0.028779344039544265538
-0.035661817858119053415
-0.040378867204117589729
-0.042708824915789013466
-0.042735259286886845276
-0.040264965876461465688
-0.035333291246775533345
-0.028217379829648333439
-0.019362367324696660303
-0.0093428903103976897182
0.0011692286511290209475
0.01144376791720335719
0.020739882533415680832
0.028364502617784156935
0.033739528035967109032
0.036482045200195656331
0.036514186349404544052
0.034066012614626821342
0.029158337412813400968
0.022136314058931329252
-0.023768612025921311698
-0.033132112787696461897
-0.038941255222766209265
-0.04157603518733930803
-0.041700435977305896906
-0.039308567046596923356
-0.034522913691011750115
-0.027656248191321914504
-0.019141539548091356104
-0.009511450774680480641
0.00061655714556767260686
0.010565600893016471179
0.019635707758510805021
0.027150974255550439779
0.032513774719765874133
0.035273956155602817497
0.035243885267945487816
0.032459807837315918233
0.026374015711410705304
0.016768658318115151062
-0.021131271271928698391
-0.032993350009763180997
-0.040045342106699723106
-0.043104776498695193676
-0.04332331420810297401
-0.040858450117614859842
-0.035923998389984029833
-0.028886390632726459404
-0.020191636116969231829
-0.010359182098527828023
1.6579206186255130356e-05
0.01027780987995348741
0.019727285839426178526
0.027664362678329147693
0.033428469764477886095
0.036463460056211927096
0.036448976953910021404
0.033239134648589192811
0.025804445286151438121
0.013537568693235841819
-0.021878409034569251679
-0.036137533728863600879
-0.04439147764010115127
-0.047804652870964352285
-0.047958724057668357388
-0.045159357555930493278
-0.039712837356024752178
-0.032049072061381543575
-0.022642264147519269857
-0.012016796530249899272
-0.00076433421204255612511
0.010453383573663158762
0.020915402233919085095
0.029865715464801927126
0.036546944465306187289
0.040263692535393323657
0.040537829372192211996
0.037036677210998888987
0.028287371281897327052
0.013380770592001649255
-0.026875682984073868964
-0.043421384544267895012
-0.052731407681448384805
-0.056285804041003438536
-0.056082312057546178374
-0.052576399680773835965
-0.046172686306839121062
-0.037372115120712159908
-0.0266854887834579238
-0.0146509376164387084
-0.0018670011239401221315
0.010989041209254896136
0.023156958325047483777
0.033803909823998543049
0.042047055664554480736
0.047016953150924599425
0.048041616335139827876
0.044571029912783367843
0.034668716397075992341
0.017138847169857439334
-0.03701500090209076943
-0.055737524735085239302
-0.065856527688243432506
-0.069191874202573319663
-0.068192220168515796375
-0.063486194988867580835
-0.055590580065446752733
-0.045084070661706318606
-0.032515420925007809672
-0.018434385482317343363
-0.0034428525525415317778
0.011768786873149668717
0.026399142259709122704
0.03952841053572324348
0.050125777362909754165
0.057110198233697062609
0.059564697992498749635
0.056658733233486691105
0.045906777140312243768
0.025771784853369717611
-0.053348123147531012478
-0.074117809674424439681
-0.084668967839633790806
-0.087244351979190087887
-0.084833178689024513197
-0.078286264927019316717
-0.068255863067624628071
-0.055404209299934406574
-0.040311185508064346916
-0.02352333878819974633
-0.0056269865969859602858
0.012693611979126738498
0.030610922272454012955
0.047122934414579140117
0.061037750280184897844
0.071024256355975090571
0.075853150950993861179
0.074312429507836647025
0.063210773868778907802
0.040541384511937388069
-0.077210272539614960285
-0.099825985362601912798
-0.11022454289179478559
-0.11123907851855943663
-0.10655945828103530193
-0.097337945950655077598
-0.084394213694037142903
-0.068475941101081155837
-0.050175675746552642065
-0.030005829280578991819
-0.0084993955877378200847
0.01370555041229826361
0.035792368921480868793
0.056703064440425242354
0.075088639278481278394
0.08933571756311720069
0.097822574543131049496
0.098813175246161732979
0.088169939667040647668
0.063188912338292407833
-0.11038521134610630725
-0.13447109202873636091
-0.1437694879683788507
-0.14201665101241284228
-0.13386115270542223166
-0.12086917278585933289
-0.10406259363558753583
-0.084264667739528190116
-0.062043431855398394059
-0.037824590391905367481
-0.012026577083700931703
0.014824572227801501023
0.041988960130003680216
0.068410141149071873601
0.092616434609600076233
0.11270136561197011127
0.12656949580665702304
0.13177743412096354358
0.12289991723772232535
0.09615562533284771618
-0.15538326826278109349
-0.1801644224724756882
-0.18676409653690520529
-0.18039237347405207013
-0.16704229003060735992
-0.14883179511280802965
-0.12700574809002082577
-0.1024247097662050604
-0.075563900173221509871
-0.046680165826352364167
-0.015987512171446401077
0.016196454842721887818
0.049310246660437970223
0.082399979775629184076
0.11395572646285753726
0.14181473846629125135
0.16335135245730222908
0.1752063480194449574
0.17021769542154516208
0.1429052274130883371
-0.21598885116241386961
-0.23976473901379272147
-0.24087499861713076998
-0.22701417697031389675
-0.20602570927636618126
-0.18070060090451742218
-0.15247365925475425685
-0.1221444757155573102
-0.089975928202203542261
-0.055933980036222442911
-0.019905344192080638016
0.018130189463246300374
0.057931827416834447142
0.098805030512198882553
0.13936160285658530378
0.17730862072376352145
0.20950893745104423593
0.23150391607276424311
0.23388237658032837163
0.20848378608631629172
-0.29846373525236918889
-0.31737392333630609631
-0.30798495858678076598
-0.28217127564128891004
-0.25011108402710929832
-0.21525235200097397881
-0.17904923824539908939
-0.14202561449279085815
-0.1040309793324199622
-0.064566713811284828783
-0.023034875723572274808
0.02108240543423681515
0.068047327417754419066
0.11764633897645206118
0.16887875097357854526
0.21959995860098635578
0.26634801241655758908
0.30352215841356255943
0.31905388073934476401
0.3006460040509196241
-0.41359495494317033426
-0.41884036840597188567
-0.38993880011551507181
-0.34536933195071023439
-0.29758695479076019419
-0.25029103751752329599
-0.20449832347990906656
-0.160036480154815558
-0.11602208505224877177
-0.071259973029417264523
-0.024483344981775477522
0.025499773954851246566
0.079664029594993288064
0.13856063931327686212
0.20197461727854831848
0.26842654664731130376
0.33463869632592696535
0.39419540442558204107
0.43254001346012549423
0.43147910293082353261
-0.57789615052490028724
-0.54958942118442177804
-0.48585612100429670379
-0.41327353431264418626
-0.34429881575764148538
-0.28173288640748522793
-0.22525637787049959671
-0.17328620658745069738
-0.1237606603666329963
-0.074525681342901925475
-0.023473113190681522966
0.031413980923949667845
0.092014751359597579672
0.1599508928781244177
0.23630836009983360868
0.32108762236709659232
0.41217657293570120203
0.50338561318281793699
0.5798493906178815438
0.61734208907465937255
-0.81921150892198579818
-0.71114614480375093475
-0.58783927148713932542
-0.477040798653368181
-0.38217915787148692974
-0.30290114148499425184
-0.23620281496552561484
-0.17807851396233820296
-0.12478112953954886843
-0.072997542602281653701
-0.0197016588895986694
0.038008660527741329471
0.10301258928144477189
0.17824922117696045953
0.2666687213083402952
0.37083556479405666018
0.49126078776976367379
0.62401300725243191714
0.76180177645851721024
0.8826255796679143284
-1.2384850741262121154
-0.93129146237636883932
-0.69955584307712270764
-0.53581560471732248008
-0.40998330590926429506
-0.31313395766345525351
-0.23746932163925277282
-0.17517909270981066316
-0.12024256183427167732
-0.068046494554993161574
-0.014674496883579506851
0.043660700317818462723
0.11084806168602868992
0.19135670803365895098
0.29068759177235053981
0.41552081645082467043
0.57145747862872875444
0.76170911820691933336
1.0073225766007773974
1.3177419699530534825
-2.0740310679200066879
-1.2878080598623697917
-0.84586057434957306889
-0.60490928962629553212
-0.44123720045481051866
-0.32512945937419274189
-0.24072677054611166247
-0.17502298120019649241
-0.1192277969047191577
-0.067271998123812293269
-0.014316351043836366558
0.044052685714642894621
0.11273067713763937348
0.19778879655165246265
0.30783389101517572017
0.45555334202929059773
0.65675608734758050833
0.93536985163358921103
1.3869139772474572414
2.130534881255007118
-2.6363913666074560993
-1.2816163206797916985
-0.73069710866251147419
-0.49250821121489340992
-0.34760668500914526646
-0.25163684792753526764
-0.18527186161463915504
-0.13549915092206166189
-0.094311780617599150212
-0.056474771986952894409
-0.018001285219485789468
0.024698962653357393882
0.075519718378532496583
0.13955557832509676852
0.22460946236910686591
0.34401646818020226171
0.52059692874413554531
0.80325671175687440861
1.375299249240087951
2.6013833853062178214
)
;

boundaryField
{
    movingWall
    {
        type            fixedValue;
        value           uniform 0;
    }
    fixedWalls
    {
        type            zeroGradient;
    }
    frontAndBack
    {
        type            empty;
    }
}


// ************************************************************************* //
