/*--------------------------------*- C++ -*----------------------------------*\
| =========                 |                                                 |
| \\      /  F ield         | OpenFOAM: The Open Source CFD Toolbox           |
|  \\    /   O peration     | Version:  2412                                  |
|   \\  /    A nd           | Website:  www.openfoam.com                      |
|    \\/     M anipulation  |                                                 |
\*---------------------------------------------------------------------------*/
FoamFile
{
    version     2.0;
    format      ascii;
    arch        "LSB;label=32;scalar=64";
    class       surfaceScalarField;
    location    "1";
    object      phi;
}
// * * * * * * * * * * * * * * * * * * * * * * * * * * * * * * * * * * * * * //

dimensions      [0 3 -1 0 0 0 0];

oriented        oriented;

internalField   nonuniform List<scalar> 
760
(
1.0077428673833588073e-08
-1.007740437814079084e-08
-2.3700111783064283992e-08
3.3777466635135706005e-08
-1.0347592872440139301e-07
7.977557402371415874e-08
-2.1461129586135622135e-07
1.1113514165945483178e-07
-3.4051716033052072881e-07
1.259058820462745594e-07
-4.6594176093245519477e-07
1.2542494696320874619e-07
-5.7801284749660517638e-07
1.1207157965840263478e-07
-6.6656513829948020918e-07
8.8552586696605685382e-08
-7.2413514768777624378e-07
5.75698565879429055e-08
-7.459146512302482486e-07
2.1778946487479530036e-08
-7.29793667946755605e-07
-1.6121613766568638266e-08
-6.7651738664764919292e-07
-5.3276584583343233888e-08
-5.8992486112795050286e-07
-8.6592296243595307334e-08
-4.7719676371128593371e-07
-1.1272745880244142178e-07
-3.489989939901886241e-07
-1.2819709450067145072e-07
-2.1933848366331100486e-07
-1.2966019092937464665e-07
-1.0484787464965844801e-07
-1.1449081891784963065e-07
-2.32017496352489166e-08
-8.1646723670351460674e-08
1.0720395126913248918e-08
-3.392280116377546629e-08
1.0720057786106640949e-08
-3.2183863958793238625e-08
2.2106503248672837016e-08
-1.5928584111412391874e-07
1.6087973232941773319e-07
-3.7444788613481252217e-07
2.9493773400856260806e-07
-6.508866543486284503e-07
3.875737284830173547e-07
-9.5569478389889067602e-07
4.3071360056577613978e-07
-1.2563231091985297174e-06
4.26052924048758339e-07
-1.5238893827985989191e-06
3.79637852718114394e-07
-1.7347894094469571693e-06
2.9945300965499660969e-07
-1.8713865803229804513e-06
1.9416758065257118324e-07
-1.9223394128998564941e-06
7.2732126289871522087e-08
-1.8828819559685648978e-06
-5.557916343211158157e-08
-1.7551712833693691065e-06
-1.8098774144634723352e-07
-1.5486693684533883019e-06
-2.9309479696862581676e-07
-1.2804007567207787094e-06
-3.809964144920676429e-07
-9.7481215004539312658e-07
-4.3378560930052128282e-07
-6.6282619877779550713e-07
-4.4164566545200148888e-07
-3.7954442291049495451e-07
-3.9777196556772963179e-07
-1.5997742986973411667e-07
-3.0121324037515267482e-07
-3.1611517198011964433e-08
-1.6228856154199811937e-07
-2.0892038242602681792e-08
-8.0499396541655433318e-08
1.0260571818006196798e-07
-3.0489243226110659482e-07
3.85273043581808279e-07
-6.4504136777725013124e-07
6.3508701198547991468e-07
-1.0612628658940712065e-06
8.0379536546067883252e-07
-1.5090425721388411188e-06
8.7849305528531038714e-07
-1.9448069266772226689e-06
8.6181676082237907068e-07
-2.3296700545952633219e-06
7.6450055519797600311e-07
-2.6315904746364723032e-06
6.0137342578983463965e-07
-2.8264977502344498811e-06
3.8907531793872505128e-07
-2.8989060825377813615e-06
1.4514110494386942897e-07
-2.8423689307635415882e-06
-1.1211589529270531016e-07
-2.6599350355572319234e-06
-3.6342171049870988156e-07
-2.3645829210990702141e-06
-5.8844743904510734267e-07
-1.9794429257073887841e-06
-7.6613708171924172442e-07
-1.5374615174516468098e-06
-8.7576744732077573456e-07
-1.0800323615962999769e-06
-8.9907476769879122048e-07
-6.5406345760297735923e-07
-8.2374035404110799459e-07
-3.0705892489622339219e-07
-6.4821710839966096351e-07
-8.0070668822391477854e-08
-3.8927637969674526408e-07
-1.0096315362297253758e-07
-1.231349022940099128e-07
2.2574030490129731831e-07
-4.392087861639940128e-07
7.01346989159679316e-07
-8.9597460534379942113e-07
1.0918531935420744197e-06
-1.4380528169403628362e-06
1.3458740067877991329e-06
-2.0096772330600604608e-06
1.4501176112390338959e-06
-2.5586423662456506722e-06
1.4107815677087792277e-06
-3.0392899976621784773e-06
1.2451475740851566064e-06
-3.4143485140962086298e-06
9.7643146468461933536e-07
-3.6559316397554599084e-06
6.3065844913342070816e-07
-3.7460953678171270091e-06
2.3530534301651597964e-07
-3.6772761473900916102e-06
-1.8093441561965525815e-07
-3.4527790682437668567e-06
-5.8791833226511064253e-07
-3.0873039634975155418e-06
-9.5392260412776489232e-07
-2.6073168088680448619e-06
-1.2461247731955815951e-06
-2.0509051328714792804e-06
-1.4321798151667549208e-06
-1.4666359129566717304e-06
-1.4833444269015054852e-06
-9.1093780244305471507e-07
-1.3794383934936007373e-06
-4.4376833371397375647e-07
-1.1153860857925367236e-06
-1.2299607657607611651e-07
-7.1004807442964039964e-07
-2.2395930647853819746e-07
-1.607439942926025335e-07
3.8648406477588909054e-07
-5.6185115863026677079e-07
1.102453886583153428e-06
-1.1275521314453954499e-06
1.6575542592728371546e-06
-1.785483012578311207e-06
2.0038053461043636705e-06
-2.468330706590247651e-06
2.1329658329316675157e-06
-3.1162880800096765948e-06
2.0587391143467177825e-06
-3.6788173581146208238e-06
1.8076764886877849464e-06
-4.1155685211415447985e-06
1.413181943196090999e-06
-4.3967176612392217826e-06
9.1180703901757637299e-07
-4.5030805136935769028e-06
3.416681465725541569e-07
-4.4263045488195944371e-06
-2.5770989224029644586e-07
-4.1693124385247899092e-06
-8.4490971785740946394e-07
-3.7470021263470113574e-06
-1.376232388910140094e-06
-3.1870254291406794272e-06
-1.8061014421225365468e-06
-2.5302827996490488546e-06
-2.0889229129414514142e-06
-1.8306253182269275758e-06
-2.1830025731007639023e-06
-1.1532295104646500148e-06
-2.05683465059579499e-06
-5.7132817312425693877e-07
-1.6972874134611196668e-06
-1.616042988507919386e-07
-1.1197715601721531155e-06
-3.8556329441972446992e-07
-1.9543094315647332593e-07
5.8191508126469235235e-07
-6.7649348969826918117e-07
1.5835159666961950792e-06
-1.3445610527911751166e-06
2.3256215092416078998e-06
-2.1097702848081324261e-06
2.7690147103662645407e-06
-2.8932096856291747762e-06
2.9164058099511946447e-06
-3.6283265252045017381e-06
2.7938565698836797746e-06
-4.2612619435049890621e-06
2.4406120998349592659e-06
-4.7504059022327603087e-06
1.9023255041983314522e-06
-5.0656156598157100817e-06
1.2270160553285439316e-06
-5.1875192538097230019e-06
4.635711299766289688e-07
-5.1072292805210772079e-06
-3.3799996744904823888e-07
-4.8266582366556174804e-06
-1.1254803030523714956e-06
-4.3594699331129895645e-06
-1.8434199573096429277e-06
-3.7325190366711265093e-06
-2.4330517615254796273e-06
-2.9874187355496641007e-06
-2.8340231198252985056e-06
-2.1816561336969821364e-06
-2.9887655862588138523e-06
-1.3885242753483238682e-06
-2.8499671371389650059e-06
-6.9519952456748433293e-07
-2.3906125887990599211e-06
-1.9867721814734301855e-07
-1.6162938467316535117e-06
-5.8424005650841023211e-07
-2.2914903163681590276e-07
8.1106453122579466767e-07
-7.8701730134606337628e-07
2.1413838693765173491e-06
-1.5515183266572288265e-06
3.0901219644692502338e-06
-2.4148516753002177942e-06
3.6323477073992814694e-06
-3.2868996502241342673e-06
3.7884539927201162779e-06
-4.095672508093433907e-06
3.6026300944428857188e-06
-4.7859074156453820356e-06
3.1308476803172747278e-06
-5.316810155095518378e-06
2.4332284539189079653e-06
-5.659719389174093355e-06
1.5699248887922738171e-06
-5.7962576585359450868e-06
6.0010864293787171408e-07
-5.7173416015200967711e-06
-4.1691666988010237481e-07
-5.4232691983010461955e-06
-1.4195528639407005359e-06
-4.9249618528134849016e-06
-2.341726902001180265e-06
-4.2462704277285710344e-06
-3.1117424851704955078e-06
-3.4270135698355136792e-06
-3.6532793984321916202e-06
-2.5260861411728102465e-06
-3.8896928881806160501e-06
-1.6236109964578156745e-06
-3.7524426413014631035e-06
-8.2087697700709715183e-07
-3.1933471444348856744e-06
-2.3682791139176399067e-07
-2.2003432299835258829e-06
-8.2106768445117807739e-07
-2.6348826789604094919e-07
1.0745533460924079178e-06
-8.9635500058004523249e-07
2.7742506030023029969e-06
-1.7506575113181205394e-06
3.9444240111635136195e-06
-2.6999666113744216939e-06
4.5816561577119402932e-06
-3.643958855485328388e-06
4.7324458898626417709e-06
-4.5074258078595863454e-06
4.4660972984116398488e-06
-5.236499436182694668e-06
3.8599220211642009721e-06
-5.7939936548952646809e-06
2.9907233770147743755e-06
-6.1550609829878130742e-06
1.9309924583758782597e-06
-6.3038743899021511412e-06
7.4892168857713600426e-07
-6.2317257450752627828e-06
-4.8906604245634594884e-07
-5.9367631956217171673e-06
-1.7145160699061846564e-06
-5.4254965236457052501e-06
-2.8529937907214702286e-06
-4.7160836091395044045e-06
-3.8211550837950672145e-06
-3.8431719230760354045e-06
-4.526190459651792042e-06
-2.8636232566059975142e-06
-4.8692410177740008478e-06
-1.8617965140396826094e-06
-4.7542692507887888447e-06
-9.5237685854029848743e-07
-4.1027670731850100091e-06
-2.7819371903794688668e-07
-2.8745267700267087303e-06
-1.0992614503421529539e-06
-2.9974656114603185467e-07
1.37430023505256837e-06
-1.0061363372821858323e-06
3.4806407840179891827e-06
-1.9408312387924130202e-06
4.8791188832075506028e-06
-2.9578395892497042669e-06
5.5986639831430831047e-06
-3.9486122556374074e-06
5.7232178568418508828e-06
-4.8383485945829736013e-06
5.3558332784585415461e-06
-5.5787065858020158036e-06
4.6002802697965151875e-06
-6.1399513794728650352e-06
3.5519688849686523038e-06
-6.5041387147879021596e-06
2.2951805092628910573e-06
-6.6600759985637490777e-06
9.048592590339832029e-07
-6.6003538396102646814e-06
-5.4878848751191515816e-07
-6.3205998059503948154e-06
-1.994270764625154303e-06
-5.8211248445843857827e-06
-3.3524693928948111313e-06
-5.1111475264275033488e-06
-4.5311326681504779837e-06
-4.2156241671267661306e-06
-5.421713597699417332e-06
-3.1842060915363994008e-06
-5.9006585705390080982e-06
-2.1008664522152411688e-06
-5.8376084210948090024e-06
-1.0913851901649697278e-06
-5.1122481967268278236e-06
-3.2437221504656015719e-07
-3.6415399440234804329e-06
-1.4236339467207694687e-06
-3.3924172196738818464e-07
1.7135418238743202977e-06
-1.1167457235118759736e-06
4.2581453518144304573e-06
-2.1166479129683902566e-06
5.8790215274702284462e-06
-3.1726827847217050449e-06
6.6546988197873976488e-06
-4.1718277280986397582e-06
6.7223622142967069017e-06
-5.0454082565469167792e-06
6.2294130726694067572e-06
-5.7564891096855131368e-06
5.3113607451577928063e-06
-6.287854475640490422e-06
4.0833344749550608296e-06
-6.6323425661378008721e-06
2.6396692706697663396e-06
-6.786010900567503668e-06
1.0585282961939401072e-06
-6.7440822374945573234e-06
-5.9071681471509996403e-07
-6.4996053813936766988e-06
-2.2387478081139098861e-06
-6.0450014642103512647e-06
-3.8070738725293702075e-06
-5.3769307001199382882e-06
-5.1992040255103549382e-06
-4.5049840815477290091e-06
-6.293660507584898673e-06
-3.4642910780011986044e-06
-6.9413514369184773801e-06
-2.3308995048755774228e-06
-6.9709995743007629592e-06
-1.2365651479940207312e-06
-6.2065821709283374339e-06
-3.7650762607664588601e-07
-4.5015973617854302313e-06
-1.8001418465342515234e-06
-3.8380290220965566372e-07
2.097344180048488806e-06
-1.2273161761904150246e-06
5.1016589881891421317e-06
-2.2669231601434230076e-06
6.9186291656905638821e-06
-3.3168951867844635393e-06
7.7046713366853744853e-06
-4.266740563376748423e-06
7.6722075175113809504e-06
-5.0626494660087304769e-06
7.0253213750747002891e-06
-5.6870274456229379535e-06
5.9357379924015388743e-06
-6.1413495314416838126e-06
4.537656158037423797e-06
-6.4336146536453249817e-06
2.9319345440205242328e-06
-6.5700268952931500916e-06
1.1949411212196358235e-06
-6.5501145010269595326e-06
-6.1062854849132795566e-07
-6.3647846296337225931e-06
-2.4240773046602503762e-06
-5.9974028374817317551e-06
-4.1744557467591013916e-06
-5.4286399952454255987e-06
-5.7679673107941466275e-06
-4.646328324151763453e-06
-7.0759726931849450254e-06
-3.6615477167858673094e-06
-7.9261323274850409965e-06
-2.530974246568027026e-06
-8.1015729658100876396e-06
-1.382445466286223509e-06
-7.3551106436383052476e-06
-4.354077758282563788e-07
-5.4486347806000645847e-06
-2.2355497032768840706e-06
-4.3641775902068158985e-07
2.5337613068547708295e-06
-1.3349385762835513571e-06
6.000179731791249067e-06
-2.3709605138457963368e-06
7.9546515263815417224e-06
-3.3446564886675420659e-06
8.6783679904210947291e-06
-4.1608133429456508224e-06
8.4883648440241555444e-06
-4.793293281284166848e-06
7.657801256383231671e-06
-5.2537279103452955324e-06
6.3961720718068698955e-06
-5.5688580571086624202e-06
4.8527856106310679639e-06
-5.7658917775080794361e-06
3.1289678332948832115e-06
-5.8637076829811106302e-06
1.2927570769337240937e-06
-5.8678623157387761636e-06
-6.064734546819628352e-07
-5.7682242634960925038e-06
-2.5237147705952385101e-06
-5.5391308665685191846e-06
-4.4035487545954657448e-06
-5.1431030025716595983e-06
-6.1639951641151647299e-06
-4.5402911069570609344e-06
-7.6787849076080828955e-06
-3.7066536122442003279e-06
-8.7597702364842889677e-06
-2.6634252201869208941e-06
-9.1448016050688450262e-06
-1.5170863519862178107e-06
-8.501449482693761663e-06
-5.0158081747785402878e-07
-6.4641401078577906725e-06
-2.7371304051561900028e-06
-5.0182482787913228297e-07
3.0355858083538136825e-06
-1.4314459670511717532e-06
6.9298004325138813362e-06
-2.3897735459830584309e-06
8.9129790300756091227e-06
-3.1792868714563691902e-06
9.4678817128465918128e-06
-3.7422122462514820618e-06
9.0512908702222514667e-06
-4.0975372210785847196e-06
8.0131267111350310293e-06
-4.2967808002742513839e-06
6.5954156613363469866e-06
-4.3971745461694826171e-06
4.9531789107395319827e-06
-4.4472255028261374203e-06
3.1790181680515074573e-06
-4.4794642748081582148e-06
1.3249954013297848261e-06
-4.5066464991128853354e-06
-5.7929128574287568519e-07
-4.5194456713261793186e-06
-2.5109152769730696533e-06
-4.4852522962091042998e-06
-4.4377416455015020197e-06
-4.3492489266943404685e-06
-6.2999981636427015346e-06
-4.0407884703700511415e-06
-7.9872452891518084351e-06
-3.490287799831600177e-06
-9.3102711158987087029e-06
-2.6633446845810826765e-06
-9.9717450337095408131e-06
-1.6168806481519355073e-06
-9.5479137187764595297e-06
-5.7479919609368420684e-07
-7.5062215482350127263e-06
-3.3119294262861559135e-06
-5.857194558920131643e-07
3.6213054297385098766e-06
-1.4933939498372996243e-06
7.8374744467283981243e-06
-2.2461862011797175298e-06
9.6657708045287707264e-06
-2.6888609387349909948e-06
9.9105563175307197883e-06
-2.8366985393671813488e-06
9.1991288184150036606e-06
-2.7743378611141019779e-06
7.9507666341402289013e-06
-2.6011354390748843654e-06
6.4222137251569736541e-06
-2.405290773778632031e-06
4.7573343468757609557e-06
-2.2541562047778349121e-06
3.0278832917873682697e-06
-2.1916408961490299652e-06
1.2624795778787336984e-06
-2.2373988099137335936e-06
-5.3353380559182676319e-07
-2.385352339734057039e-06
-2.3629618868187950824e-06
-2.6009275680809522121e-06
-4.2221662302449599138e-06
-2.8179479852886201775e-06
-6.0829773798335814625e-06
-2.9384310699464030891e-06
-7.8667618860591388084e-06
-2.8422966066541737665e-06
-9.406405478013815129e-06
-2.418838380551348488e-06
-1.0395203389889212992e-05
-1.634469098279223254e-06
-1.0332283219434059026e-05
-6.5155881860054248792e-07
-8.4891319624828531087e-06
-3.9634881477642004623e-06
-6.8763225868759552098e-07
4.3089381969596235418e-06
-1.4533285925363479118e-06
8.6031705861981437545e-06
-1.7807239992984108464e-06
9.9931657160038370917e-06
-1.6405423405426985253e-06
9.7703741660364141282e-06
-1.1702132332399261813e-06
8.7287995488311331046e-06
-5.3610004420337154225e-07
7.3166536962066442036e-06
1.1692602533763888249e-07
5.7691881580275059075e-06
6.7931218341216998141e-07
4.1949486524845699137e-06
1.0750395180281958957e-06
2.6321561427574205811e-06
1.2561215551243036503e-06
1.0813973823673314693e-06
1.1987881456796898862e-06
-4.7620077739562320423e-07
9.0329965563389808465e-07
-2.067473777703641029e-06
3.9797403061732673443e-07
-3.7168407891698874712e-06
-2.5279248686391944321e-07
-5.4322107838183415033e-06
-9.385869917986668691e-07
-7.1809671305712935782e-06
-1.4977974053571074909e-06
-8.8471948197581399339e-06
-1.7325706284343787288e-06
-1.0160430073846406446e-05
-1.4695428661323911794e-06
-1.0595311054570431464e-05
-7.1553746904503572682e-07
-9.2431374956219989784e-06
-4.6790256317232271417e-06
-7.7368601971925315644e-07
5.0826247051255891394e-06
-1.1238736979150318342e-06
8.9533584267858291769e-06
-6.5875809820349255836e-07
9.528049956070363486e-06
3.789781953714297573e-07
8.7326374556985532225e-06
1.6854047152862309038e-06
7.4223725929509774121e-06
3.0205802653594547577e-06
5.9814779326005669259e-06
4.2193518584790812623e-06
4.5704166804087576127e-06
5.1765538501315194454e-06
3.2377470221102409559e-06
5.8275735616742128454e-06
1.9811368315155540774e-06
6.1332675800500934533e-06
7.757035973096112576e-07
6.0714477295497648634e-06
-4.1438095660548012386e-07
5.6347235506396408549e-06
-1.6307498409961307205e-06
4.834730751005037212e-06
-2.9168482863058892194e-06
3.7137129125908266051e-06
-4.3111931292359277612e-06
2.3643164729381436211e-06
-5.8315706827264463181e-06
9.5538832344660075395e-07
-7.4382665180969228987e-06
-2.4812542512671582435e-07
-8.9569161584161059047e-06
-8.9975416297969969766e-07
-9.9436822455340145133e-06
-7.0875155283033433668e-07
-9.4341401463482056741e-06
-5.3877772525264203541e-06
-6.889274236118185e-07
5.7715523048383725934e-06
-1.6458433749569375727e-08
8.2808897290092234485e-06
1.7979886550538615677e-06
7.7136030687902663313e-06
4.076252908134570774e-06
6.4543731684726694337e-06
6.3684867350573660946e-06
5.1301384900176461181e-06
8.4293682265457906211e-06
3.9205960783768658778e-06
1.0135170295729026323e-05
2.8646143614322243598e-06
1.1428702045734595312e-05
1.9442152569594497023e-06
1.2284196315720501819e-05
1.1256427661857865008e-06
1.2687133303377282282e-05
3.7276690706584593141e-07
1.2624224267142096785e-05
-3.5147169009099320195e-07
1.2080441929644730503e-05
-1.0869674483263647646e-06
1.1041462089697169196e-05
-1.8778685674754373264e-06
9.5044197064074754911e-06
-2.7741509455287703586e-06
7.5009707491151900586e-06
-3.8281218753798896995e-06
5.1392691859800327861e-06
-5.0765649793244474336e-06
2.6687498441763852227e-06
-6.486396734278398202e-06
5.6463625842976533738e-07
-7.8395685591734514444e-06
-4.4586188323337721574e-07
-8.4236419630790535678e-06
-5.8336391865333851069e-06
1.8387709677861277918e-07
5.5876750644603404426e-06
3.0471853764911720848e-06
5.4175815731111184257e-06
6.8795808953178109996e-06
3.8812078207071939393e-06
1.0566219233811087772e-05
2.7677350805127157927e-06
1.3739963720230184861e-05
1.9563940774725889337e-06
1.6314323281880588031e-05
1.3462363832559878339e-06
1.8300492427917087768e-05
8.7844496123022066291e-07
1.9736604068920889977e-05
5.0810338207435555945e-07
2.0657885352252701526e-05
2.0436138407143177341e-07
2.1084819775125356186e-05
-5.4167446416226757014e-08
2.1017990446131718332e-05
-2.8464218296703026573e-07
2.0437553779947341913e-05
-5.0653060026909874376e-07
1.9301271146205765809e-05
-7.4158584578906669842e-07
1.7547934668915221774e-05
-1.0208145038171119547e-06
1.5108841379468824633e-05
-1.3890286973163816052e-06
1.1941764047962523645e-05
-1.9094877484555615476e-06
8.1146279645613715055e-06
-2.6592606789210949424e-06
3.9936393976764674599e-06
-3.7185799537726391862e-06
6.6741935868560697386e-07
-5.0974218720239052101e-06
-5.1662198415350690781e-06
4.1259293191957500675e-06
1.4617455217661931566e-06
1.1133584123947534798e-05
-1.5900733388123720237e-06
1.700901834684002075e-05
-1.9942263365024804128e-06
2.1485470617522093304e-05
-1.7087169981504625716e-06
2.4826833394841953134e-05
-1.3849684891543978188e-06
2.7283693198397571296e-05
-1.110623296116841227e-06
2.9053915694505190941e-05
-8.9177754888456535571e-07
3.0273813978046203356e-05
-7.1179503057811468232e-07
3.1028383242097387694e-05
-5.5020804679042383682e-07
3.1363248725339604606e-05
-3.8903304930668334578e-07
3.1291426776723623305e-05
-2.1282025216869697118e-07
3.0792654970899991024e-05
-7.7587187511328626006e-09
2.9811635793458824914e-05
2.3943344616040112101e-07
2.8247813910988420368e-05
5.4300746010417572274e-07
2.5941134778657223305e-05
9.1765044555862335171e-07
2.2658172696131059098e-05
1.3734742881222587966e-06
1.8106740709252677524e-05
1.8921712551576691299e-06
1.2023293230398136768e-05
2.3648675059811019327e-06
4.6827301153824067329e-06
2.2431412580720186768e-06
-4.8348972184764957798e-07
2.1434814785467656958e-05
3.1374939255992062635e-05
3.5983777014232264015e-05
3.8734329994951298935e-05
4.0500395947724838292e-05
4.1672642749905020542e-05
4.2462583901168804109e-05
4.2981223068176351053e-05
4.3287727604414450203e-05
4.3411862102562848468e-05
4.3362665469882543843e-05
4.313032481677992044e-05
4.268278633662537315e-05
4.1955640134574329373e-05
4.0827581952260578655e-05
3.9064691299473690061e-05
3.6203623856525167458e-05
3.1217026663851623995e-05
2.0812014944647197506e-05
)
;

boundaryField
{
    movingWall
    {
        type            calculated;
        value           nonuniform List<scalar> 
20
(
-1.997306935876432045e-05
-1.1530197946314157018e-05
-6.6030642079554224686e-06
-4.4592700204139652307e-06
-3.151034392898317209e-06
-2.2828699854840230597e-06
-1.6817185808935064531e-06
-1.2304341284073824344e-06
-8.567125907105569059e-07
-5.1316761714627260433e-07
-1.6362370860301774647e-07
2.2458187593483867428e-07
6.8697192196479439948e-07
1.2701537033419065571e-06
2.0457086798051107373e-06
3.1363649701760438709e-06
4.7532386960588182318e-06
7.3514646822766335917e-06
1.2648152968857080396e-05
2.0328525223638194402e-05
)
;
    }
    fixedWalls
    {
        type            calculated;
        value           uniform 0;
    }
    frontAndBack
    {
        type            empty;
    }
}


// ************************************************************************* //
