/*--------------------------------*- C++ -*----------------------------------*\
| =========                 |                                                 |
| \\      /  F ield         | OpenFOAM: The Open Source CFD Toolbox           |
|  \\    /   O peration     | Version:  2412                                  |
|   \\  /    A nd           | Website:  www.openfoam.com                      |
|    \\/     M anipulation  |                                                 |
\*---------------------------------------------------------------------------*/
FoamFile
{
    version     2.0;
    format      ascii;
    arch        "LSB;label=32;scalar=64";
    class       volVectorField;
    location    "1";
    object      U;
}
// * * * * * * * * * * * * * * * * * * * * * * * * * * * * * * * * * * * * * //

dimensions      [0 1 -1 0 0 0 0];

internalField   nonuniform List<vector> 
400
(
(0.00019469062745748526928 -0.00019233667397563719115 0)
(4.8680686813446828482e-05 0.00012522108489122928576 0)
(-0.0011183311532809571236 0.00050130645404925975282 0)
(-0.0030889912783871658827 0.00075823795578149782212 0)
(-0.0055239624846212202064 0.00088080429760572424933 0)
(-0.008096364289827852681 0.00088523100601111369412 0)
(-0.010520986507415994171 0.00079376005251741003389 0)
(-0.012565731947108964295 0.00062874975147647919546 0)
(-0.014053829888910464654 0.00041061227926505300921 0)
(-0.014862305859996930574 0.00015820466096787014969 0)
(-0.014921492997976099071 -0.00010983727740009116417 0)
(-0.014217000409129742708 -0.00037372416265841828468 0)
(-0.012793868556363958283 -0.0006114658521464641245 0)
(-0.010761829304717761974 -0.00079838191088883877448 0)
(-0.0082999302873043283996 -0.00090740987231139940902 0)
(-0.0056576152978378415823 -0.00091081968418615900322 0)
(-0.0031469786780851534934 -0.00078433229490725031065 0)
(-0.0011214981033592736834 -0.00051436914472711633972 0)
(6.5311932049121014174e-05 -0.00012359616962755954413 0)
(0.00020326707469260342455 0.00019953049788727872339 0)
(-0.00010069027333539821989 -6.9590129662401979758e-05 0)
(-0.0014718617204621782871 0.0014932342686023883458 0)
(-0.0049713870831628054897 0.003121104072451942428 0)
(-0.010045420912085645943 0.0042558372893841409437 0)
(-0.016014914021317563919 0.0047961536998270982296 0)
(-0.022214105312258675129 0.0047729121617883325454 0)
(-0.028020456717823806481 0.0042654452103615342687 0)
(-0.032902920330294106732 0.0033711601613928277033 0)
(-0.036446432079186262543 0.0021912666632117184899 0)
(-0.038359847521924068936 0.00082749865375817831421 0)
(-0.038480692021647451562 -0.00061587540174980301595 0)
(-0.036781254510042472872 -0.0020287119901973909783 0)
(-0.033376303276544033727 -0.0032926487965150284289 0)
(-0.028530441047126341159 -0.0042815115401593131089 0)
(-0.022661156388590918132 -0.0048662003825732024972 0)
(-0.016330347594509155712 -0.0049267052097712506903 0)
(-0.010210091709342125968 -0.004374792729845337555 0)
(-0.0050169807385906390468 -0.0031897354957317581269 0)
(-0.0014607519791231318978 -0.0015018563831643017004 0)
(-8.9727067076240127688e-05 8.9710639757199534417e-05 0)
(-0.00047999168007894371397 0.0010597533848650236149 0)
(-0.0032139543720863840426 0.0050059807690074203945 0)
(-0.0089955953775142580287 0.008687491550310941224 0)
(-0.016800836286112581092 0.01122559860844817535 0)
(-0.025661752568697494825 0.012393304108107244463 0)
(-0.034697740574001684211 0.012224446266681400844 0)
(-0.043077215387867288932 0.010878431884897446155 0)
(-0.050081767407532715164 0.0085745112188769789796 0)
(-0.05514593909573114322 0.0055561931424504048399 0)
(-0.057871984389557193373 0.0020781843673164223513 0)
(-0.058038622111890744715 -0.0015942306714158268818 0)
(-0.055609833987960530233 -0.0051815274370920396535 0)
(-0.050744252049929931825 -0.0083878521576783333924 0)
(-0.043802934935030901631 -0.010905329295583965354 0)
(-0.0353508511552812002 -0.012429348818295573448 0)
(-0.026142743553531338357 -0.012690251623534584691 0)
(-0.017072929880434416922 -0.01150702973003516795 0)
(-0.0090909095159339790154 -0.0088648479503292652859 0)
(-0.0032130145758937551405 -0.0050505142682046805583 0)
(-0.00046751368187617913137 -0.0010289526346969218341 0)
(-0.00080504951372310307525 0.0031137466139953651027 0)
(-0.0048028087874934953169 0.010454368079188968224 0)
(-0.012741797446191206397 0.016727079124121742998 0)
(-0.023055694126158189639 0.020908084672525816677 0)
(-0.034466786365223496535 0.022710256299822213777 0)
(-0.045912646901098773389 0.022204814642013435272 0)
(-0.056413499294841969178 0.01965996777794261352 0)
(-0.065131040836806333716 0.015447482932723759566 0)
(-0.071409610015682814521 0.0099874051060219841414 0)
(-0.074789066416731261877 0.0037245314700848561329 0)
(-0.075012445030441798899 -0.0028757376041392548535 0)
(-0.072034853940861995336 -0.0093238854779045931415 0)
(-0.066034065663511248845 -0.015104708965293213094 0)
(-0.057420741884118893517 -0.01968613109577994208 0)
(-0.046843796515572883044 -0.02254624326776799581 0)
(-0.035180682263001687715 -0.023226437077538575338 0)
(-0.023487020432097108907 -0.02141651532204875974 0)
(-0.012916264631588444955 -0.01706926068981791389 0)
(-0.0048208544787430871251 -0.01056564535937389547 0)
(-0.00079120976699824418013 -0.0030749594418836832289 0)
(-0.0010813515050965452451 0.0059663918535173381119 0)
(-0.0062317917763873003495 0.017655248368035291601 0)
(-0.016191174035177655077 0.026990815264373007459 0)
(-0.028838947477307488865 0.03295872325891480159 0)
(-0.042570530058389115247 0.035316623246284525872 0)
(-0.056149334536748994606 0.034241743164348206752 0)
(-0.0684792862701443239 0.030156952828878060696 0)
(-0.078645532483487184949 0.023618604921251847018 0)
(-0.085944743833035727731 0.01524703398688626553 0)
(-0.089886814876383044903 0.0056958518517355831434 0)
(-0.090195292877944435728 -0.0043532880601904778983 0)
(-0.086813314342611663799 -0.014184910440765700207 0)
(-0.079915394080676882549 -0.023045995497425083437 0)
(-0.069923405940319413587 -0.030156426382393349689 0)
(-0.057522852414476396965 -0.034744907981693405608 0)
(-0.04366843746188146802 -0.036120660271530387331 0)
(-0.029547457931042714341 -0.033786541067218824053 0)
(-0.016517391495381700262 -0.027585720250746882665 0)
(-0.0062977850687287078094 -0.017888624214419935471 0)
(-0.001071015745888138828 -0.005930274692716570005 0)
(-0.0013320997346247106727 0.0095362414253769116346 0)
(-0.0075605868208253497464 0.02649644438459656734 0)
(-0.019426401613018774023 0.039358335668061641965 0)
(-0.034257209889766444821 0.047231622423661759336 0)
(-0.05011449877449124235 0.05003173644135940068 0)
(-0.06559474649846824823 0.048130639196998580009 0)
(-0.07951144518356703661 0.042167808748909810235 0)
(-0.090909394531887760538 0.032922910872815618066 0)
(-0.099074067708985344427 0.021237251571177753057 0)
(-0.10351358064085310062 0.007981289282302250071 0)
(-0.10394583264895304597 -0.0059463063659385209658 0)
(-0.10029828104385705989 -0.019605022882657585637 0)
(-0.092720799901863479309 -0.032000606773620071666 0)
(-0.08161066258762578185 -0.042090687117102759673 0)
(-0.06764663739322165914 -0.048823125484677841468 0)
(-0.051820229028138646565 -0.051220836305589448334 0)
(-0.035425224287714718319 -0.04852004150638015989 0)
(-0.020023712149911696706 -0.040350684088633279045 0)
(-0.0077274626773063915738 -0.026955099898631568189 0)
(-0.001336210676958282835 -0.0095342745723062619773 0)
(-0.0015784519856533747034 0.01378494834683985544 0)
(-0.0088516479682411615404 0.036899977022246843728 0)
(-0.022536574435533560795 0.0537159841531477944 0)
(-0.039399331631754588856 0.063569192696465937065 0)
(-0.057166270669883112454 0.06665562926742200911 0)
(-0.074284428111794517657 0.063647161408600327892 0)
(-0.089511164087089131747 0.055474613627313804076 0)
(-0.10189320727706013825 0.043184392356387060752 0)
(-0.11074556542737222509 0.027855521654731124626 0)
(-0.11560580161518012321 0.010572354190967281004 0)
(-0.11620217591951485792 -0.0075642277180150083171 0)
(-0.11244397571684297543 -0.025406938488421376698 0)
(-0.10443474210846816208 -0.041732890124432972523 0)
(-0.092508556852636675272 -0.055234475028872222213 0)
(-0.077287922011164161828 -0.06455011085323308917 0)
(-0.059750622523421122179 -0.068353972326235565293 0)
(-0.041258447886090898749 -0.065516415580286285758 0)
(-0.023564990126717835078 -0.055324849869379855161 0)
(-0.0091953713108849227664 -0.037756540114158416988 0)
(-0.0016142663722385880952 -0.013883316749540890872 0)
(-0.0018383590448327674031 0.018710212045943495907 0)
(-0.010156902038588825482 0.048819862206221947831 0)
(-0.025583600791966764482 0.069945274380877997533 0)
(-0.044289700038444006214 0.081769807514227757506 0)
(-0.063669677356467779816 0.084916576031147023018 0)
(-0.082056379979570395755 0.080482887508868811155 0)
(-0.09820448559542609146 0.069777377105568832993 0)
(-0.11122119539524376319 0.054158449057857008246 0)
(-0.12050419098819258046 0.034952667813834985278 0)
(-0.12566063006886055153 0.01344175273927159138 0)
(-0.12645119648310809701 -0.0091039958429241455568 0)
(-0.12276774784967313392 -0.031368987210174788249 0)
(-0.11464529474127362063 -0.051934245301588230492 0)
(-0.10231014349440402389 -0.069240455838440184699 0)
(-0.086265639009589778485 -0.081596979852911130648 0)
(-0.06740392940666588284 -0.087263794900043836766 0)
(-0.047089094155861550839 -0.084627918942364530053 0)
(-0.027227460872826118876 -0.07247232274794039586 0)
(-0.010771578354569768046 -0.050332757303577460584 0)
(-0.0019291011754424430315 -0.01902246826348122713 0)
(-0.0021287075242960099009 0.024338672455966992025 0)
(-0.011517092858150208487 0.062229138429946817546 0)
(-0.028588248791616262257 0.08789767050917886293 0)
(-0.04885822999840608305 0.10154617717883550332 0)
(-0.06940218016747939922 0.10441590137580870901 0)
(-0.088501546202177400202 0.098183588618432973694 0)
(-0.10499100998023677689 0.084633609186564942584 0)
(-0.11812101228949779819 0.06547944897984488144 0)
(-0.12744288421455285398 0.042293460394871751351 0)
(-0.13268601944137961568 0.016520615459159219973 0)
(-0.13367425428692203404 -0.010453647353390643077 0)
(-0.13028817915746918055 -0.03720803279058416263 0)
(-0.12247318954005682878 -0.062185510003310177918 0)
(-0.11029731421644807521 -0.083612970306757794514 0)
(-0.094065397192481775557 -0.099469741465823838245 0)
(-0.074482742879290714244 -0.1075418816317048748 0)
(-0.052809755936810073851 -0.10560007431556527047 0)
(-0.03102550334772691612 -0.091718422006789188106 0)
(-0.012504523882934701073 -0.064747630312424128696 0)
(-0.0023023656199512637296 -0.025035035839939646235 0)
(-0.0024703330724567974103 0.030722510825991637684 0)
(-0.012968879702153114294 0.07709704855525673084 0)
(-0.031523965854887953109 0.10734496987680919311 0)
(-0.05291141166036736343 0.12245291725582096998 0)
(-0.073923887387232614654 0.12454344319467627877 0)
(-0.092897993981866336388 0.11606398904334815081 0)
(-0.10887160831695254226 0.099381162816913892755 0)
(-0.12135092357950404141 0.076597144874590072927 0)
(-0.13013123085659475398 0.049509668827263611512 0)
(-0.1351291601174684498 0.019670175015775042543 0)
(-0.13627139631004536735 -0.011499987211069878298 0)
(-0.13344085363538032984 -0.042564046892087419038 0)
(-0.12647723854693018741 -0.071916108350067509125 0)
(-0.11523851142161772865 -0.09764116964765413853 0)
(-0.09973788702671740336 -0.11741992563730715982 0)
(-0.080360126193973410724 -0.12852550844447307998 0)
(-0.05810302569425994379 -0.1279727926241361613 0)
(-0.034874445173940740728 -0.11287252882161791234 0)
(-0.014419235218224303943 -0.081046180594646077822 0)
(-0.0027568021670035976201 -0.032032358987501334535 0)
(-0.0028961996093209568803 0.037944656032269707957 0)
(-0.014555318682494031157 0.093360708748283699476 0)
(-0.034303951690384151818 0.12790715469263030934 0)
(-0.05608255496229742898 0.14378598991722371658 0)
(-0.076495374295249815577 0.14437004616607387875 0)
(-0.094110382727744607001 0.13310952433878536771 0)
(-0.1083441441681485401 0.11305731440475863536 0)
(-0.11910145268550188791 0.086714630674369089225 0)
(-0.12652592327440481679 0.056055193945929768229 0)
(-0.13079251164394037343 0.022652242115887660096 0)
(-0.13197568740348186722 -0.012142498618905820523 0)
(-0.1299826495464638243 -0.046994977481188346391 0)
(-0.12454270927526596424 -0.080373694444491300404 0)
(-0.11526142816565008997 -0.11033673021955801852 0)
(-0.10176502516382666952 -0.13434740607875977902 0)
(-0.083957154869384237328 -0.14917189358612345518 0)
(-0.062352062295507215683 -0.15094577671050915524 0)
(-0.038547970704021911059 -0.13551582116462748684 0)
(-0.01651364143248264249 -0.0991937542867674521 0)
(-0.0033212960931528591815 -0.040146458707918532272 0)
(-0.0034640647346181148089 0.046138289261353861159 0)
(-0.016333918703533303884 0.11088430447974143012 0)
(-0.036738242716206397087 0.1489421716151478059 0)
(-0.057725798150604107351 0.16444135810491811167 0)
(-0.075928105495642134182 0.16251343100203247127 0)
(-0.090426628138266254564 0.14787050446996344299 0)
(-0.1012513192500682363 0.12432533005363276268 0)
(-0.10886809638186963067 0.094740893517066215868 0)
(-0.11387017367169144366 0.061174619313718259228 0)
(-0.11675212290858999475 0.025105496998363154015 0)
(-0.1177763347344467082 -0.012312441835743013346 0)
(-0.1169030655368663435 -0.04998742648218237189 0)
(-0.11376628881490684353 -0.086615511140309978111 0)
(-0.10770457983930148416 -0.12039024125949344957 0)
(-0.097884379212230476774 -0.14870744508665575956 0)
(-0.083563179625919969951 -0.16791294788506805347 0)
(-0.064493051071613155534 -0.17320093828481872289 0)
(-0.041596566135561105493 -0.15883884439446624426 0)
(-0.018744618968276557242 -0.11898654892289224627 0)
(-0.0040377363203349106099 -0.049527761728790635487 0)
(-0.004273643654706326192 0.055525155127727710003 0)
(-0.01836533009956583043 0.12937921875360491875 0)
(-0.038412103828473972977 0.16936155749871795173 0)
(-0.05668893789301453906 0.18271143760599162231 0)
(-0.070308129299401736501 0.17697739264935510861 0)
(-0.079290691371428023704 0.15836509478071986168 0)
(-0.084560824146923355138 0.13143298755383817089 0)
(-0.087293977614035220269 0.099283138397560047328 0)
(-0.088595131449200281715 0.063906066898779756436 0)
(-0.089300969462570739532 0.026541089400108745094 0)
(-0.089878865241345098913 -0.011993058947460527586 0)
(-0.090371945718732832331 -0.050989702015792955081 0)
(-0.09036247381917694721 -0.089538540539353284053 0)
(-0.088960860754054196797 -0.12617088126523284819 0)
(-0.084865802889952046684 -0.15844674495697208538 0)
(-0.0765696936377903703 -0.18250392102329285327 0)
(-0.062763222992570436021 -0.1926727338381045429 0)
(-0.04318277127873428739 -0.18139737422057031213 0)
(-0.020982923409839149276 -0.13990149977365920475 0)
(-0.0049670430653945057617 -0.060345052268638746384 0)
(-0.005475954507182962186 0.066437389220248235788 0)
(-0.020623572134193659394 0.1481782629936027329 0)
(-0.03837118284729141432 0.18727290122624123958 0)
(-0.050840689715821479888 0.19597293601649223849 0)
(-0.056498304457977072124 0.18496728038418297491 0)
(-0.056878761507592669189 0.16202273006230935581 0)
(-0.054062011816263064179 0.13224401210792735561 0)
(-0.049992811372246953594 0.098717049231464876202 0)
(-0.046249981521000932405 0.063147984785674210473 0)
(-0.043953636007112731332 0.026376343073651796478 0)
(-0.043744365508380948782 -0.011234372606245013673 0)
(-0.045767974318156615099 -0.049474824085363980353 0)
(-0.049632772932335908478 -0.087971579741279296027 0)
(-0.054341791539992433113 -0.12580634123809769642 0)
(-0.058242109807846220715 -0.16100978278999486526 0)
(-0.059078810564214163936 -0.18989053644923550856 0)
(-0.054263140900421176493 -0.20624519969562976618 0)
(-0.041736845655021892476 -0.20070255926115332379 0)
(-0.022874471077306474109 -0.1607727745135208719 0)
(-0.0061774762987506868367 -0.072736210228860856408 0)
(-0.0072154844384473082811 0.079240039419101654383 0)
(-0.022642615677403742092 0.1656597527902513578 0)
(-0.034338439192196597294 0.19930290692188581958 0)
(-0.036113144518809314754 0.20024090538488428792 0)
(-0.029277440883804652788 0.18273823961931123794 0)
(-0.017467553310250270165 0.15575272589439503879 0)
(-0.0039872187392087279217 0.12442177746075085143 0)
(0.008609127308813881857 0.091395666236569278462 0)
(0.018488688299353080169 0.057830578598096878118 0)
(0.024433736086495703999 0.024029855850168313491 0)
(0.025736641643807709606 -0.010155568449748068882 0)
(0.022153978352502878835 -0.045045631361622574806 0)
(0.013943560566063935985 -0.080867121520470305884 0)
(0.0019888355334423861789 -0.11741294348304663619 0)
(-0.012008177037066785492 -0.1535143982476870339 0)
(-0.025330583865262906729 -0.18619689460884331078 0)
(-0.034180668112057666086 -0.20942516596584939692 0)
(-0.034213853782838719864 -0.21258014232285207812 0)
(-0.023433508364047520023 -0.17913674897531436936 0)
(-0.0076529520059973642557 -0.086620844354419093691 0)
(-0.0092934149595893401213 0.094508574856508875683 0)
(-0.022409993645758553849 0.17856238316621669826 0)
(-0.020891475677951226037 0.19993019423203475804 0)
(-0.0046831303729602926159 0.19002146611741790871 0)
(0.020017063613510226866 0.16590961458528247219 0)
(0.047379164794660012794 0.13649619993555398012 0)
(0.073345112829071759664 0.10602576850533766695 0)
(0.095300116624441988389 0.076171302406128529872 0)
(0.11162741981492367571 0.04730159643241981654 0)
(0.12134377248860148124 0.019140666185920304082 0)
(0.12386088056950697589 -0.0089113687052490911378 0)
(0.1188795889841626624 -0.037602301246883032548 0)
(0.10640800276578682437 -0.067676092787583366772 0)
(0.08691335786154569254 -0.099652523591153369109 0)
(0.061635129049872630635 -0.13339862895944859522 0)
(0.033069513385950891071 -0.16726923435503276982 0)
(0.0055323812673989634925 -0.19651080480316113208 0)
(-0.014538937860248611969 -0.2107898716995276478 0)
(-0.019944994743516405306 -0.19063998543271432062 0)
(-0.0089166569743274123883 -0.1017589182150699656 0)
(-0.0097710652223731396526 0.11383114748135482464 0)
(-0.013344382338326797252 0.18130721035072422387 0)
(0.014227706638071118198 0.18142101055455917002 0)
(0.057906037100048962651 0.15923056238229973958 0)
(0.10512200428798318397 0.13090749914446012103 0)
(0.14942973643146517659 0.10272155322899388652 0)
(0.18749466159250202657 0.076799129864043511051 0)
(0.21767797255628842934 0.053386432779629615364 0)
(0.23926305088639959751 0.03201631091019440517 0)
(0.25191567997270314372 0.011973131736837245437 0)
(0.25538827675758168922 -0.007569842048926894891 0)
(0.24940075382407483895 -0.027526268239739810906 0)
(0.23363323888852960408 -0.048884760243555508419 0)
(0.20784086900365869588 -0.072664031896975025959 0)
(0.1721756478550193481 -0.099716203034945688488 0)
(0.12783124258219952241 -0.13012708624838670302 0)
(0.077985199487672879348 -0.16173872513916320859 0)
(0.029220204395770582595 -0.1873093498570423121 0)
(-0.0052699680737000910435 -0.18853237706064454593 0)
(-0.0076556488157608192785 -0.11826334872708510471 0)
(0.0011130827562204088227 0.12888578120141458427 0)
(0.024397457795821652499 0.15478091092494009051 0)
(0.097023766899274527242 0.12867555682740075551 0)
(0.17628060748088475451 0.099900879360332206502 0)
(0.24581044226683032572 0.075142976094792562902 0)
(0.30330077081270934158 0.054895420719491369588 0)
(0.34878406203145106979 0.038514294546883667825 0)
(0.38285936481444721169 0.025033685557309778152 0)
(0.406316483761849645 0.013576186036047365249 0)
(0.41975416463611442408 0.0034106351200829543996 0)
(0.42340193031756512276 -0.0061199412740734300195 0)
(0.41707463611324269159 -0.015682800466627334207 0)
(0.40014820712164805849 -0.026055627755818103891 0)
(0.37155884846214576323 -0.038209231227791899677 0)
(0.32994106287890162532 -0.053375480544503105251 0)
(0.27406254901405441293 -0.072961135251594130824 0)
(0.2034073020695657541 -0.097966454202339001145 0)
(0.11986305455568602163 -0.12745383098763671259 0)
(0.039292536506838587895 -0.15281250846417637757 0)
(0.005696232236255639042 -0.12542852535943779801 0)
(0.069997440707841890317 0.060664217822110601264 0)
(0.15372346211603693522 0.03127177960456924144 0)
(0.28268734096041386872 0.0083369852398764467127 0)
(0.38995203367852104837 -0.0010218060668001679309 0)
(0.46761011452089396023 -0.0048078864417570935097 0)
(0.52447213904621237113 -0.0064318065741809926639 0)
(0.56606278011272326278 -0.007120584179138496686 0)
(0.59554448675099291854 -0.0073002117340215440938 0)
(0.61502876094621128367 -0.0070730809037146914406 0)
(0.62580412572849297703 -0.0064234829009736189517 0)
(0.62844998445175115354 -0.0053048498119935396169 0)
(0.62290112311238821086 -0.0036780710355039875417 0)
(0.60842564204915705606 -0.0015542812656188218813 0)
(0.58350189216263981251 0.00096167537206460085991 0)
(0.54561777255662924357 0.0035830977889574717674 0)
(0.49103967757001287797 0.005629928776838958801 0)
(0.41379205575391309058 0.005527915855154056507 0)
(0.3045137521017702853 -0.00030090902354618608017 0)
(0.16898568330928351311 -0.018889988778313108325 0)
(0.072228945685552770062 -0.045844801811393429136 0)
(0.39775364393457773859 -0.21080952001478520108 0)
(0.55408080078065435892 -0.18974770626451817335 0)
(0.67675002217250224135 -0.13632836954398186435 0)
(0.75171701488198150454 -0.098457191854372336226 0)
(0.79545131753776154859 -0.07225012360521043675 0)
(0.82360239527409873084 -0.0537654098203422387 0)
(0.84265462710248495437 -0.040387417016626105115 0)
(0.85544923117526017187 -0.030113550467608479061 0)
(0.86353832063600421964 -0.021508343350190625709 0)
(0.86777160143506981704 -0.01354099093017485135 0)
(0.86852339246974974429 -0.005400712100294279179 0)
(0.86578842627475571803 0.0036400347893597549687 0)
(0.85916949976020473567 0.01435301509262450724 0)
(0.84775097991127190689 0.027694751102709191937 0)
(0.82980581085857763046 0.045027033888760267799 0)
(0.80215128685174441614 0.068428594738005915632 0)
(0.75797573038132126655 0.10102206259500870478 0)
(0.68093053473235365392 0.14774030052760564469 0)
(0.54924523507824096757 0.21282941173237440724 0)
(0.36766978458193699808 0.23264477910295611185 0)
)
;

boundaryField
{
    movingWall
    {
        type            fixedValue;
        value           uniform (1 0 0);
    }
    fixedWalls
    {
        type            fixedValue;
        value           uniform (0 0 0);
    }
    frontAndBack
    {
        type            empty;
    }
}


// ************************************************************************* //
