/*--------------------------------*- C++ -*----------------------------------*\
| =========                 |                                                 |
| \\      /  F ield         | OpenFOAM: The Open Source CFD Toolbox           |
|  \\    /   O peration     | Version:  2412                                  |
|   \\  /    A nd           | Website:  www.openfoam.com                      |
|    \\/     M anipulation  |                                                 |
\*---------------------------------------------------------------------------*/
FoamFile
{
    version     2.0;
    format      ascii;
    arch        "LSB;label=32;scalar=64";
    class       volScalarField;
    location    "0.5";
    object      p;
}
// * * * * * * * * * * * * * * * * * * * * * * * * * * * * * * * * * * * * * //

dimensions      [0 2 -2 0 0 0 0];

internalField   nonuniform List<scalar> 
400
(
-0.039614115265836490065
-0.044494667270360721556
-0.050168953647893817227
-0.054172936859821781141
-0.055138750993324568694
-0.052496219787823338032
-0.046252510448060564496
-0.036813979372890930086
-0.024856558002761278137
-0.01124123853301538245
0.0030463671716392469978
0.01695026384232168129
0.029405155735781691312
0.039414356387790346059
0.046151872778855393409
0.049095510782008092154
0.048197037273056311801
0.044077729760732910214
0.038231355342049321011
0.033255477680867548407
-0.034775626430638445497
-0.039791201641149812063
-0.044180498862591607856
-0.046792872895089335228
-0.047005888449749538838
-0.044421676014671590549
-0.039020635307661977187
-0.031096557796639459625
-0.021164577057298263746
-0.0099002513186297776138
0.0019094513390380402074
0.013415844872030636623
0.023765491491159647375
0.032169576924312361099
0.037987556627791255193
0.040828529215606784719
0.040676859122930175694
0.037970919782640437379
0.033435690232172209091
0.028331195157052613959
-0.028779355784343971236
-0.035661786931924385757
-0.040378797972793201154
-0.042708668245931030727
-0.042734946032486009759
-0.040264490675520119012
-0.035332743807459231211
-0.028216901335059069861
-0.019362066915049842147
-0.0093427834383964184634
0.0011692206927598298646
0.011443763834063829313
0.020739969791223590578
0.028364690414016607151
0.033739750608538482401
0.036482216486693565261
0.036514275837198781338
0.034066091176721470524
0.02915854661994486674
0.02213678280394964365
-0.023768728287032254987
-0.033132106110370762586
-0.0389412271883936012
-0.041576001891344034622
-0.041700321434434410584
-0.03930828778893854375
-0.034522467066883916198
-0.027655735586532937537
-0.019141109668008866873
-0.0095112090650859241331
0.00061660850056058575438
0.010565558695580326912
0.019635708553580474844
0.027151116550392786347
0.03251406603361996217
0.035274318193264368737
0.035244220262377626285
0.032460087788470093351
0.026374329100956418748
0.016769152250344584315
-0.021131507641827630001
-0.032993342560608943104
-0.040045262084608679309
-0.043104731737430700134
-0.043323292725151098248
-0.040858351399201554843
-0.035923729129600845411
-0.028885950653944902217
-0.0201911304470471821
-0.010358756883930722234
1.6824711202352144433e-05
0.010277878419403363441
0.019727277459080847649
0.027664417296054216039
0.033428688595818177587
0.036463850843121571599
0.036449461314432239634
0.033239622757953488086
0.025804938261156901147
0.013538164462779576913
-0.021878757815782093332
-0.036137544763505141665
-0.044391320907757186864
-0.047804494042561790357
-0.047958645918345380044
-0.045159319962837458917
-0.039712721714342452684
-0.032048781663326898761
-0.022641801463531115862
-0.01201626470832281926
-0.00076387312427206928867
0.010453678619290066379
0.020915532674226272603
0.029865778039337913946
0.036547077323959689665
0.040263996572393656592
0.040538312802784970401
0.037037269704847039509
0.028288022322321144941
0.013381508458345658594
-0.026876073251410618342
-0.043421436527174374354
-0.052731217221109502602
-0.0562855176187889647
-0.05608207233129237218
-0.05257626469779595052
-0.046172595174700958864
-0.037371943546883910903
-0.026685145728570551504
-0.014650428701712127702
-0.0018664236272198033058
0.01098955699017709238
0.023157322371192865657
0.033804122324667014443
0.042047208170354156975
0.04701717698985469901
0.048042005308227053728
0.04457159338447266167
0.034669422049654299856
0.017139685311800472584
-0.037015299722980850305
-0.055737595842771971155
-0.065856362564965811868
-0.069191528795402093555
-0.068191818112134539032
-0.063485863234430617297
-0.055590357409565520352
-0.045083888232489537085
-0.032515162585596495137
-0.018433972005838804992
-0.0034422911283782343592
0.011769409472749408838
0.026399709853181494573
0.039528842074435077691
0.050126073463686388054
0.057110442823797874512
0.05956500911059029596
0.056659195524522004694
0.045907421750449428632
0.025772614030750633923
-0.053348186604342685835
-0.07411782131565622378
-0.084668842397068427852
-0.087244033992463845828
-0.084832702378385180242
-0.078285750671396175937
-0.068255423753832256129
-0.055403872156038369567
-0.040310886898112539833
-0.023522980324516030992
-0.0056265029568922106731
0.012694214799466434565
0.03061157198963477058
0.047123532903583481568
0.061038228906032020171
0.071024617410094914582
0.075853468336261609117
0.074312806482686122322
0.063211294417408914192
0.040542088679438051391
-0.077210014846260222043
-0.099825837391282923328
-0.11022440492381765931
-0.11123882312217288348
-0.10655901304858708678
-0.097337354144795121269
-0.084393590422354641811
-0.068475385529197685397
-0.050175212182848080711
-0.030005409348753484672
-0.008498943461484061157
0.013706086628912376307
0.035792986844116074507
0.056703708748179558474
0.075089232508833383961
0.089336205753260386486
0.097822961956495993463
0.098813525081441880293
0.088170339039468401121
0.063189424567493920892
-0.11038464664842383145
-0.1344707211395447799
-0.14376925088910769146
-0.14201641894901548269
-0.13386078966623468633
-0.12086862304084809716
-0.10406190587078806287
-0.084263946557899038758
-0.062042765829794149779
-0.037824009059455328263
-0.01202605303231835121
0.014825091690670696293
0.041989515529587385922
0.068410735517975523878
0.092617030598262067853
0.11270190693512968649
0.12656994265149193457
0.13177779076816584225
0.12290022828381530484
0.096155940203661124932
-0.15538250036540576793
-0.18016384406304139509
-0.18676370089430158195
-0.18039208649832577658
-0.16704198354697899487
-0.14883134952186427569
-0.12700512215599640831
-0.10242395151105858353
-0.075563103279587762184
-0.046679413811941877777
-0.015986844995474647213
0.016197043196334637294
0.049310788970235046313
0.08240050845108910782
0.1139562510880456625
0.14181523844103624543
0.16335178957361068397
0.17520669148867520915
0.17021793640257604219
0.14290537277282003292
-0.21598802169877576174
-0.23976404651199739737
-0.24087446054211883451
-0.22701378384826420564
-0.20602539366082289751
-0.18070024270067672201
-0.1524731573314309363
-0.12214380186265737238
-0.089975129462185735041
-0.055933142812859937276
-0.019904551030390113531
0.01813088830229226886
0.057932421346688335595
0.09880553845401021662
0.13936205278084304315
0.17730902828062097831
0.20950929457936312561
0.23150419463564547717
0.23388253587205889983
0.20848378791167979096
-0.29846296460315535626
-0.31737324723125609482
-0.30798437382539989304
-0.2821708025501082906
-0.25011071978603188759
-0.21525202388278663612
-0.17904884196332873647
-0.14202507414792409079
-0.1040302827833531063
-0.06456591016235596614
-0.023034046978093455915
0.021083178251440622825
0.068047989302846056958
0.11764687098104800733
0.16887916517263945604
0.21960028117787361301
0.26634826282143087006
0.30352233257322780435
0.31905393561987877016
0.30064587451375884841
-0.41359430937642521764
-0.41883982021822019348
-0.38993830033299042848
-0.34536888180341485111
-0.29758657561289986182
-0.25029070773839551256
-0.20449797799927010855
-0.16003604534064136411
-0.11602151724005718703
-0.071259279051060026022
-0.02448257738400758457
0.025500538552827953231
0.079664716852723957419
0.13856119761268748114
0.20197502787441001804
0.26842682063887429722
0.33463885962276551655
0.39419547339709831713
0.43253995916654686127
0.43147885463626139968
-0.5778956477771938216
-0.54958905368111621303
-0.48585580696860497518
-0.41327323009506083951
-0.34429851708336256522
-0.28173258863909106386
-0.22525605759171621334
-0.17328582533901981666
-0.12376018345717193503
-0.074525098619991694826
-0.023472448897857284972
0.031414673170241720623
0.092015404529880398532
0.15995144484377113447
0.23630876981180135021
0.32108787796234095069
0.41217668906858007105
0.50338560979403290663
0.57984925429323630475
0.61734175560693660412
-0.81921114810070405632
-0.71114594927703111971
-0.58783916445531181338
-0.47704070491108702123
-0.3821790279677079738
-0.30290094993401545098
-0.23620255116977634247
-0.17807817116269372693
-0.12478070169862660876
-0.072997030806679449877
-0.019701079375046910008
0.038009271332244701225
0.10301318092121682091
0.17824973857433673574
0.26666911848196611645
0.37083581532583748119
0.49126089035012787676
0.62401297787871623513
0.76180160982494193878
0.88262522215066752107
-1.2384848643414079206
-0.93129140352748263076
-0.6995558988710588455
-0.53581570351268814623
-0.40998337118340966168
-0.31313393264935535099
-0.23746917859739322121
-0.17517882742427343112
-0.12024218379190936001
-0.068046022021323426809
-0.014673953654404115962
0.043661275060825489869
0.11084863319769611145
0.19135722441244570891
0.29068800781873838091
0.41552109996756037003
0.57145761677133943834
0.76170911825983933507
1.0073224383844767704
1.3177416770682535141
-2.0740310194300390911
-1.28780812582799431
-0.8458607697025182226
-0.60490956590940536675
-0.44123747991400430468
-0.32512966291339057134
-0.24072683778564868406
-0.17502287868886190481
-0.11922751672193480921
-0.067271552108349189081
-0.014315775359041599604
0.044053327779883917625
0.11273138195656781657
0.19778948438167240353
0.30783449941015672557
0.45555382228635210584
0.65675640791483191894
0.93537000453600815941
1.3869139680307371876
2.1305347322916010633
-2.6363914202099012485
-1.2816164592401508848
-0.73069736576643895543
-0.49250857144854909286
-0.34760709173448456344
-0.25163722583342917893
-0.18527213529967420658
-0.13549925933791440169
-0.09431168597015231192
-0.056474463012921027882
-0.018000773792294897518
0.024699658049765618045
0.075520490977132495591
0.13955638281354790231
0.2246102318881240123
0.34401713708987929907
0.52059744471073898797
0.8032570453944607447
1.3752994073118969265
2.6013834097507304577
)
;

boundaryField
{
    movingWall
    {
        type            fixedValue;
        value           uniform 0;
    }
    fixedWalls
    {
        type            zeroGradient;
    }
    frontAndBack
    {
        type            empty;
    }
}


// ************************************************************************* //
