/*--------------------------------*- C++ -*----------------------------------*\
| =========                 |                                                 |
| \\      /  F ield         | OpenFOAM: The Open Source CFD Toolbox           |
|  \\    /   O peration     | Version:  2412                                  |
|   \\  /    A nd           | Website:  www.openfoam.com                      |
|    \\/     M anipulation  |                                                 |
\*---------------------------------------------------------------------------*/
FoamFile
{
    version     2.0;
    format      ascii;
    arch        "LSB;label=32;scalar=64";
    class       surfaceScalarField;
    location    "0.5";
    object      phi;
}
// * * * * * * * * * * * * * * * * * * * * * * * * * * * * * * * * * * * * * //

dimensions      [0 3 -1 0 0 0 0];

oriented        oriented;

internalField   nonuniform List<scalar> 
760
(
1.0077160924233792791e-08
-1.0077211333732558751e-08
-2.3700212732010685767e-08
3.3777124996182834887e-08
-1.0347464210563278086e-07
7.9774646480208148215e-08
-2.1460753842611559756e-07
1.1113360067331162421e-07
-3.4051031239229959379e-07
1.2590360564311501628e-07
-4.659319033864203067e-07
1.254219878130457789e-07
-5.7800063541892586089e-07
1.1206838558454944261e-07
-6.6655144230554854013e-07
8.8549916400922606122e-08
-7.2412071717740338311e-07
5.7568431241972383267e-08
-7.4590000749577267319e-07
2.1779083902950303053e-08
-7.2977923387145463866e-07
-1.6120141004683983044e-08
-6.765036986465645714e-07
-5.3274392819419048166e-08
-5.8991267712434103793e-07
-8.6590041922720277343e-08
-4.7718696645278866745e-07
-1.1272550347935661454e-07
-3.4899230253819773628e-07
-1.2819538020805095177e-07
-2.1933509500415591304e-07
-1.2965841492770968724e-07
-1.048472379773448884e-07
-1.144888109910181847e-07
-2.3202627073605220496e-08
-8.1644747535880207885e-08
1.0719473929481356031e-08
-3.3921461654203780405e-08
1.0720273549629027416e-08
-3.2182933360191820197e-08
2.2106066357926246489e-08
-1.5928288645829519086e-07
1.6087666908996864567e-07
-3.7444110751839962408e-07
2.949322466170705985e-07
-6.5087437498822443469e-07
3.8756654273984651137e-07
-9.5567575249734972941e-07
4.3070535397199794254e-07
-1.2562969638753516289e-06
4.2604416100630756479e-07
-1.5238568635768936436e-06
3.7962929337929811946e-07
-1.7347521911685407096e-06
2.9944569310249373107e-07
-1.8713468206441376301e-06
1.9416269336596676658e-07
-1.9222992815915758972e-06
7.273060814222520823e-08
-1.882843352598456015e-06
-5.557698530805343598e-08
-1.7551357748470214079e-06
-1.8098228328706229128e-07
-1.548638254936636905e-06
-2.9308705564577945115e-07
-1.2803751341234883627e-06
-3.8098760379974866887e-07
-9.7479285604481597674e-07
-4.3377678440002247069e-07
-6.6281358278435342328e-07
-4.4163753984956033052e-07
-3.7953801937789277406e-07
-3.9776501299289472644e-07
-1.5997568157274899831e-07
-3.0120793723036761954e-07
-3.1612083434032680915e-08
-1.6228542267559731272e-07
-2.0891204373052563863e-08
-8.0497328701048481201e-08
1.0260391279272257958e-07
-3.048860745297478237e-07
3.8526546424863399304e-07
-6.450287058483234155e-07
6.350743054592234991e-07
-1.0612423228595435159e-06
8.0377928501049692397e-07
-1.5090129704307227236e-06
8.7847549012462095369e-07
-1.9447677726098713265e-06
8.6179930278265088304e-07
-2.3296219382959891658e-06
7.6448455503103584957e-07
-2.6315352481997338483e-06
6.0136023130835707408e-07
-2.8264382893753393936e-06
3.8906636430939479306e-07
-2.8988457369430314112e-06
1.4513771387922406735e-07
-2.8423109227364065283e-06
-1.1211290578977852837e-07
-2.6598820182496959231e-06
-3.6341238673285822235e-07
-2.3645367849125246909e-06
-5.8843283070433503157e-07
-1.9794048374571222143e-06
-7.6611907530828347791e-07
-1.5374320862968967144e-06
-8.7574834034619470421e-07
-1.080011743054921157e-06
-8.9905675994681221183e-07
-6.5405123787681107624e-07
-8.2372518682894650316e-07
-3.0705372087563199024e-07
-6.4820596343553324975e-07
-8.0069990014309316458e-08
-3.8926989413385913485e-07
-1.009612350293270256e-07
-1.2313236337338785972e-07
2.2573653723479916713e-07
-4.3920002858693089828e-07
7.0133372674176275024e-07
-8.959573044547803519e-07
1.0918316404887651919e-06
-1.4380256546786228169e-06
1.3458469377143477812e-06
-2.0096395472104785675e-06
1.4500883318819031934e-06
-2.5585939970704698426e-06
1.4107531379171741051e-06
-3.039231554722166272e-06
1.2451224551150380659e-06
-3.4142817307612514591e-06
9.7641158364005967034e-07
-3.6558594434170459482e-06
6.306454176606353507e-07
-3.7460215330838540166e-06
2.3530052958491768443e-07
-3.6772046733230291795e-06
-1.8093007611994333677e-07
-3.4527135191385398737e-06
-5.8790469978767299995e-07
-3.0872469745827847092e-06
-9.5390066894618638556e-07
-2.6072698852444210245e-06
-1.2460967663623218795e-06
-2.0508687729251072953e-06
-1.432148964783561139e-06
-1.4666099196409707414e-06
-1.4833143741633343132e-06
-9.1092149664295590356e-07
-1.3794124682911802755e-06
-4.4376037341253937759e-07
-1.1153667399988620055e-06
-1.2299406639707474928e-07
-7.1003663445611982033e-07
-2.2395583706028199957e-07
-1.6074161562400438521e-07
3.864778070254379772e-07
-5.6184148737582989639e-07
1.1024343763782830062e-06
-1.1275324173433024189e-06
1.6575233998606740723e-06
-1.7854520221099134497e-06
2.0037666990255297769e-06
-2.4682883300337944563e-06
2.132923869975006943e-06
-3.1162347813884020655e-06
2.0586984087131801691e-06
-3.6787540711578337705e-06
1.8076409818815020702e-06
-4.1154968850230421045e-06
1.4131546047262129585e-06
-4.3966402704062913583e-06
9.1178991501195824905e-07
-4.5030008815581634132e-06
3.4166254574604636803e-07
-4.4262267247290887226e-06
-2.5770332362933194901e-07
-4.1692404034358873459e-06
-8.4489112046149957851e-07
-3.7469391513361800752e-06
-1.3762029464750632402e-06
-3.1869735893271346643e-06
-1.8060636088936213204e-06
-2.5302428203155899076e-06
-2.0888804140576074726e-06
-1.8305968054144047793e-06
-2.1829600221183230194e-06
-1.1532113658310725862e-06
-2.0567967954838454046e-06
-5.7131881334453826671e-07
-1.6972582652502494772e-06
-1.6160137887309735575e-07
-1.1197537485356322907e-06
-3.855576967664787636e-07
-1.9542897152438353583e-07
5.8190589195511538154e-07
-6.7648428366967150614e-07
1.583490032270203944e-06
-1.3445415478421936839e-06
2.3255817179877050868e-06
-2.1097390659402832682e-06
2.7689652277854005493e-06
-2.89316684786058019e-06
2.9163518391859377469e-06
-3.6282730545958693987e-06
2.7938038214952623151e-06
-4.2611992580187122505e-06
2.4405659366716527348e-06
-4.7503357501375034644e-06
1.9022902131141259911e-06
-5.0655402907790842505e-06
1.2269945165883591183e-06
-5.1874415704998302304e-06
4.6356484774930229545e-07
-5.1071527627070280913e-06
-3.379906848383411359e-07
-4.8265866025804174473e-06
-1.1254562030541691448e-06
-4.3594066081486851678e-06
-1.8433828264002541572e-06
-3.732466561537926467e-06
-2.4330045099439521376e-06
-2.9873783216708810151e-06
-2.8339698493359735998e-06
-2.1816275833565121459e-06
-2.9887114471048554666e-06
-1.388506298948268315e-06
-2.8499178112968439064e-06
-6.951902181717118062e-07
-2.3905734398728178272e-06
-1.9867412519836129862e-07
-1.6162690200853226331e-06
-5.8423180681995523394e-07
-2.2914732430554378058e-07
8.1105231300965773667e-07
-7.8700946691833308332e-07
2.1413517772048293299e-06
-1.5515013939324489807e-06
3.0900741629406207094e-06
-2.4148239677885969492e-06
3.632288982712261524e-06
-3.2868610109552211271e-06
3.7883899653897041189e-06
-4.0956239979791056363e-06
3.6025670679066883129e-06
-4.785850751281417341e-06
3.1307919714836019681e-06
-5.316747278511440226e-06
2.4331855236657051674e-06
-5.6596523692342364897e-06
1.5698986572953621829e-06
-5.7961888003515420835e-06
6.0010118996326021959e-07
-5.7172735438587894897e-06
-4.1690506191129937135e-07
-5.4232048619043590461e-06
-1.4195234804249462313e-06
-4.9249041911723285525e-06
-2.3416823300209437599e-06
-4.2462219873629632823e-06
-3.1116864120306435813e-06
-3.4269759641364871002e-06
-3.6532165041471535145e-06
-2.5260596697697572508e-06
-3.8896287483018186846e-06
-1.6235946362009425036e-06
-3.7523834548934175009e-06
-8.2086877330512790986e-07
-3.193299136942108825e-06
-2.3682530280560746597e-07
-2.2003117961230416377e-06
-8.2105661076869172312e-07
-2.6348659408122131945e-07
1.0745385890107335509e-06
-8.9634898237110060821e-07
2.774213293395746808e-06
-1.7506448195401915255e-06
3.9443696176370002113e-06
-2.6999455334222731106e-06
4.5815902218643330597e-06
-3.6439287495213008764e-06
4.7323744036522198174e-06
-4.5073872998233270555e-06
4.4660267652184655666e-06
-5.236454064033369697e-06
3.8598591190239012864e-06
-5.7939433312245766769e-06
2.990674241302150268e-06
-6.1550076368115351765e-06
1.9309618668563246538e-06
-6.3038198805350298547e-06
7.4891246722572364247e-07
-6.2316719333081714707e-06
-4.8905324932679413391e-07
-5.93671203361491985e-06
-1.7144826964765498115e-06
-5.4254500662976599785e-06
-2.8529430234412674613e-06
-4.7160438638017791662e-06
-3.8210914434630747312e-06
-3.8431404971359889601e-06
-4.5261194200495898551e-06
-2.8636009018257463529e-06
-4.8691687299240912068e-06
-1.8617828124404872244e-06
-4.7542023117461366724e-06
-9.5237026839336730546e-07
-4.1027121615937481587e-06
-2.7819187959996743078e-07
-2.8744900355967543263e-06
-1.0992479072942366185e-06
-2.9974495294411867214e-07
1.3742840239509999716e-06
-1.0061324074839670115e-06
3.4806000372630916104e-06
-1.9408237189520810982e-06
4.8790599657255565057e-06
-2.9578271414297899854e-06
5.5985932064647561622e-06
-3.9485938903204523089e-06
5.723141690261859101e-06
-4.8383242395943234807e-06
5.3557583237938521367e-06
-5.5786771048426330409e-06
4.6002131621331575091e-06
-6.1399182028977804189e-06
3.5519158704682749702e-06
-6.5041034062699273587e-06
2.2951467521096975744e-06
-6.6600399927762997572e-06
9.0484814833122488664e-07
-6.6003183774988534899e-06
-5.4877579020145132409e-07
-6.3205659966137287253e-06
-1.9942354424540383845e-06
-5.821093780788293689e-06
-3.3524147734050104877e-06
-5.1111203658811397258e-06
-4.5310637841015241365e-06
-4.2156020624049130805e-06
-5.421636635580733323e-06
-3.1841899064840441344e-06
-5.9005803550101371688e-06
-2.1008563697560307886e-06
-5.837536022764744572e-06
-1.0913804291796471025e-06
-5.1121886040938509374e-06
-3.2437107821600402092e-07
-3.6414996696856691017e-06
-1.4236187116940619945e-06
-3.3924058767569805834e-07
1.7135255589335590027e-06
-1.1167442456011241679e-06
4.258103653055051592e-06
-2.1166459834264809081e-06
5.8789608913112063291e-06
-3.1726797855761483888e-06
6.6546260334211639276e-06
-4.171822707225561396e-06
6.7222842240087112535e-06
-5.0454005453719844449e-06
6.2293366521850286155e-06
-5.7564786608627894045e-06
5.3112923873097361182e-06
-6.2878418185392271421e-06
4.0832801880079282945e-06
-6.6323285165171056815e-06
2.6396341263969005987e-06
-6.7859962695860068626e-06
1.0585158432854959357e-06
-6.7440676661289672929e-06
-5.907050568848422075e-07
-6.499591307410126059e-06
-2.2387126215161321069e-06
-6.0449881988891790855e-06
-3.8070183205294363554e-06
-5.3769185784085176162e-06
-5.1991331475779356387e-06
-4.5049735922244772696e-06
-6.2935807891372776328e-06
-3.4642828392757605995e-06
-6.9412701772673342495e-06
-2.3308940262371371724e-06
-6.9709243019619266063e-06
-1.236562451796258828e-06
-6.2065201837157477581e-06
-3.7650702501648414372e-07
-4.5015553697568658795e-06
-1.8001258402755369165e-06
-3.8380281612468894742e-07
2.097329168802173818e-06
-1.2273175990959994122e-06
5.1016190742650229978e-06
-2.2669269371922739814e-06
6.9185701378311914323e-06
-3.3169015087044340238e-06
7.7045998697125793296e-06
-4.2667488800413729216e-06
7.6721307493030728772e-06
-5.0626588552846040969e-06
7.0252462591340923836e-06
-5.6870370615765596651e-06
5.9356709591583095944e-06
-6.1413588525197271355e-06
4.5376029179365430158e-06
-6.4336234520546493575e-06
2.9318998180547083927e-06
-6.570035073128298653e-06
1.1949282523257074406e-06
-6.5501219423587569423e-06
-6.1061799809872506641e-07
-6.3647911255108518411e-06
-2.4240438375474722165e-06
-5.9974080939152284023e-06
-4.1744020137083581961e-06
-5.4286437335271714222e-06
-5.7678979605341962415e-06
-4.6463304506551351053e-06
-7.0758939883180059087e-06
-3.6615484653400273525e-06
-7.9260515742880412865e-06
-2.5309741656612406963e-06
-8.1014978667567196993e-06
-1.3824451807235985217e-06
-7.3550486989824211408e-06
-4.3540767096091702756e-07
-5.4485928260280400083e-06
-2.235533758333279388e-06
-4.3641908887704730837e-07
2.5337484556700709242e-06
-1.3349431567126541098e-06
6.0001440201126845689e-06
-2.3709698054875567061e-06
7.9545974264449784017e-06
-3.3446713138081079156e-06
8.6783013951758191241e-06
-4.1608336879011210334e-06
8.4882925494366841078e-06
-4.7933183150474727746e-06
7.657730174176192962e-06
-5.2537563279350355078e-06
6.3961085993210077105e-06
-5.5688884550296837401e-06
4.8527352504069052081e-06
-5.7659228546161150707e-06
3.1289349454192675893e-06
-5.8637382740740882795e-06
1.2927446425116905633e-06
-5.867891363262600838e-06
-6.0646407473438428918e-07
-5.7682507975439082626e-06
-2.5236840204155574622e-06
-5.5391540115270852937e-06
-4.403498952368558297e-06
-5.1431220263839236157e-06
-6.1639304232077580229e-06
-4.540305534521262728e-06
-7.6787108945394733604e-06
-3.7066633855048283243e-06
-8.7596937587212525555e-06
-2.6634308188061169913e-06
-9.1447300581220568799e-06
-1.5170887645979526959e-06
-8.5013902359562289201e-06
-5.0158132557504887884e-07
-6.4640999407415560311e-06
-2.7371152126575378433e-06
-5.0182746477853572211e-07
3.0355755434024085253e-06
-1.4314534328287345263e-06
6.9297705848358099072e-06
-2.3897876487604310862e-06
8.9129325338202091029e-06
-3.179308774487771604e-06
9.467823198739549429e-06
-3.7422423552458495633e-06
9.0512262305484363783e-06
-4.0975749671032184711e-06
8.0130623910316443425e-06
-4.2968247740509545022e-06
6.5953578517043833727e-06
-4.397222819936454949e-06
4.9531329348525288068e-06
-4.4472759396912269896e-06
3.178988117880837144e-06
-4.4795147298054178116e-06
1.3249839353917818321e-06
-4.5066949396853927433e-06
-5.7928306653110192768e-07
-4.5194902708850047521e-06
-2.510887890782133576e-06
-4.4852915178673131408e-06
-4.4376972134171305213e-06
-4.3492815964803385788e-06
-6.2999403059950210502e-06
-4.0408138529826414208e-06
-7.9871789419338378368e-06
-3.4903057020021506141e-06
-9.3102022549071792202e-06
-2.6633555777858749357e-06
-9.9716802853421370627e-06
-1.6168857577800625343e-06
-9.5478598579526961359e-06
-5.7480045135031231967e-07
-7.5061849402427183739e-06
-3.3119156096288751445e-06
-5.8572282029709949834e-07
3.6212978120783760235e-06
-1.4934033560031091037e-06
7.8374512075269786463e-06
-2.2462036992810368045e-06
9.6657334662857725141e-06
-2.6888878197995230429e-06
9.9105081253267725619e-06
-2.8367354071449354808e-06
9.1990744205004352222e-06
-2.7743843913612297854e-06
7.9507115640323464719e-06
-2.6011903378806810853e-06
6.4221636122909310775e-06
-2.405351947478510244e-06
4.7572941779200460385e-06
-2.2542210472525726892e-06
3.0278569045910686978e-06
-2.1917065732517548537e-06
1.2624693999723693043e-06
-2.2374624947873695014e-06
-5.3352685311312565042e-07
-2.3854114156533547029e-06
-2.3629383756972282253e-06
-2.6009798120095221266e-06
-4.2221281290569092433e-06
-2.8179917259330655615e-06
-6.0829278840772330554e-06
-2.9384653001571367066e-06
-7.8667052182531337599e-06
-2.8423210598717749188e-06
-9.4063466689521890523e-06
-2.4188536005530257666e-06
-1.039514801835344326e-05
-1.6344765209142911066e-06
-1.0332237065982030551e-05
-6.5156082300200494029e-07
-8.489100557504664741e-06
-3.9634763186888073016e-06
-6.876355634701385769e-07
4.3089330881497098013e-06
-1.4533384906027933174e-06
8.603153872134625322e-06
-1.7807427890315336091e-06
9.9931378217836358774e-06
-1.6405714039547631896e-06
9.7703371659439694133e-06
-1.1702532318365863918e-06
8.7287568476646608525e-06
-5.3615080694221870367e-07
7.3166096580934409212e-06
1.1686560903165930578e-07
5.7691474785574078425e-06
6.7924413595543220447e-07
4.1949156723584799626e-06
1.0749665750642356569e-06
2.632134297544799702e-06
1.2560468818912049107e-06
1.0813888679318263353e-06
1.1987150423437689478e-06
-4.7619513337851669969e-07
9.0323128326179010807e-07
-2.0674544954937409056e-06
3.9791316006315432231e-07
-3.7168096168665463407e-06
-2.5284371601868476555e-07
-5.4321704789273826086e-06
-9.3862725874917193625e-07
-7.1809212329435524356e-06
-1.4978263244095765006e-06
-8.8471474289957863934e-06
-1.7325887977056651159e-06
-1.0160385646701876886e-05
-1.4695519020059778203e-06
-1.0595274163342908153e-05
-7.1554004793025528299e-07
-9.2431125299136263497e-06
-4.6790163360892065214e-06
-7.7368861404702080043e-07
5.0826218450068192398e-06
-1.1238825516879477373e-06
8.9533475431489876822e-06
-6.5877574196444053727e-07
9.528030717760360745e-06
3.7895020156772931521e-07
8.7326111442539648526e-06
1.6853656259636106425e-06
7.4223416368749087105e-06
3.0205301375372120946e-06
5.9814455447915557416e-06
4.2192916253116911804e-06
4.570386419401810697e-06
5.1764853486889741762e-06
3.2377222889745146866e-06
5.8274994226701287643e-06
1.9811204081429976826e-06
6.1331909862443039028e-06
7.7569731683205152419e-07
6.071372110890078163e-06
-4.1437637095578376848e-07
5.6346522782856046062e-06
-1.6307347857230018978e-06
4.8346668605328905739e-06
-2.9168241912335303169e-06
3.7136588263974609449e-06
-4.3111622315978132084e-06
2.3642737619678380224e-06
-5.8315358127570686057e-06
9.553575336662430795e-07
-7.4382308759033585993e-06
-2.4814486177667039833e-07
-8.9568831145782390105e-06
-8.9976390667998914217e-07
-9.9436551820163363307e-06
-7.087544011869210805e-07
-9.4341221871403340175e-06
-5.3877708218006132486e-06
-6.8892902688616918088e-07
5.7715512752001711454e-06
-1.646507554172724324e-08
8.2808835573669450014e-06
1.7979743461339437432e-06
7.7135910124084097918e-06
4.0762291239153223459e-06
6.454356049328503631e-06
6.3684525372338888569e-06
5.130118064614179891e-06
8.429323511724951963e-06
3.920574623161488686e-06
1.0135115812272536167e-05
2.8645943434924149625e-06
1.1428639397304775815e-05
1.9441990258301148561e-06
1.2284127881736092456e-05
1.125632263375310669e-06
1.2687062038384888999e-05
3.7276343618852442166e-07
1.2624153428331703417e-05
-3.5146761649218023769e-07
1.2080374759880871082e-05
-1.0869561221234086785e-06
1.1041401561088974793e-05
-1.8778510830188203918e-06
9.5043682300474695897e-06
-2.7741289529697496345e-06
7.500929943846008387e-06
-3.8280974466833024117e-06
5.1392396956738159393e-06
-5.0765404321784907398e-06
2.6687312162051603921e-06
-6.4863744423447429322e-06
5.646269025770475805e-07
-7.8395507924666987283e-06
-4.458646716290884055e-07
-8.4236306780780962478e-06
-5.8336356281388452175e-06
1.8387647528696539299e-07
5.5876751523243691039e-06
3.0471815178903366564e-06
5.4175786840410622387e-06
6.8795713166300814288e-06
3.8812011643925715937e-06
1.0566201995106020873e-05
2.7677251715772412285e-06
1.3739937667038279849e-05
1.9563821691266937148e-06
1.6314288104747575039e-05
1.3462240365701872924e-06
1.8300448657892339838e-05
8.7843376251267494975e-07
1.9736553028284671178e-05
5.0809475379110619591e-07
2.065782906201081787e-05
2.0435643678595671048e-07
2.1084760752613119773e-05
-5.4167984134323378709e-08
2.1017931518124662239e-05
-2.8463810432014604599e-07
2.0437497667781114827e-05
-5.0652207957337659629e-07
1.9301220519610378252e-05
-7.4157388361221513123e-07
1.7547891609806574951e-05
-1.020800104748764197e-06
1.5108807282377165166e-05
-1.3890132020870402487e-06
1.1941739479661628561e-05
-1.9094726428510815132e-06
8.1146125472993169608e-06
-2.6592474410659482126e-06
3.9936317637053085562e-06
-3.7185699278574630245e-06
6.6741717643756134193e-07
-5.0974160961773606985e-06
-5.1662185429828245107e-06
4.1259295414845351094e-06
1.4617457054062556434e-06
1.1133582985923677587e-05
-1.5900746426690145218e-06
1.7009013820398973546e-05
-1.9942296143289926393e-06
2.1485460975069797156e-05
-1.7087220166026788424e-06
2.4826817478330032965e-05
-1.3849744479871720384e-06
2.7283670574465726202e-05
-1.110629206614660117e-06
2.9053886664434146414e-05
-8.9178245522903164129e-07
3.0273779502914401838e-05
-7.1179815306215091484e-07
3.1028344815710735523e-05
-5.5020885615576732821e-07
3.1363208260145475099e-05
-3.8903129709336524223e-07
3.1291386417199361185e-05
-2.128160396606111075e-07
3.0792616355400033218e-05
-7.7517844016461883099e-09
2.9811601216640277621e-05
2.3944150401560651092e-07
2.8247784758891383557e-05
5.4301650903738516581e-07
2.5941111994765455841e-05
9.1765961625059486582e-07
2.2658156611384463607e-05
1.3734827428568353765e-06
1.8106730963430330412e-05
1.8921782205651116315e-06
1.2023288737120787589e-05
2.3648723397452896136e-06
4.6827289854978729181e-06
2.243143678640477619e-06
-4.8348958952947620735e-07
2.1434815311609266893e-05
3.1374939674830468162e-05
3.5983776395760945748e-05
3.8734327436699918018e-05
4.0500390813408424699e-05
4.1672634758571182117e-05
4.2462573142940430201e-05
4.2981209959858066873e-05
4.3287712811712142705e-05
4.3411846447022426482e-05
4.3362649748987112854e-05
4.3130310242865830194e-05
4.2682773340687646033e-05
4.1955629397791372793e-05
4.0827573838893510896e-05
3.9064685900280749723e-05
3.6203620959302781684e-05
3.1217025691527230144e-05
2.0812014997561664205e-05
)
;

boundaryField
{
    movingWall
    {
        type            calculated;
        value           nonuniform List<scalar> 
20
(
-1.9973069759967764289e-05
-1.1530199181704414246e-05
-6.6030665186086603277e-06
-4.4592732695626570273e-06
-3.1510380695430560242e-06
-2.2828734067043054344e-06
-1.6817210611563275382e-06
-1.2304351116344578516e-06
-8.567117315305916876e-07
-5.1316481089118925319e-07
-1.6361906064941056221e-07
2.2458820030452172169e-07
6.8697895434053767715e-07
1.2701610336709474249e-06
2.0457157012928987522e-06
3.1363710857508195182e-06
4.7532434273926317021e-06
7.3514677565469903426e-06
1.2648154440029122888e-05
2.0328525417814622539e-05
)
;
    }
    fixedWalls
    {
        type            calculated;
        value           uniform 0;
    }
    frontAndBack
    {
        type            empty;
    }
}


// ************************************************************************* //
