/*--------------------------------*- C++ -*----------------------------------*\
| =========                 |                                                 |
| \\      /  F ield         | OpenFOAM: The Open Source CFD Toolbox           |
|  \\    /   O peration     | Version:  2412                                  |
|   \\  /    A nd           | Website:  www.openfoam.com                      |
|    \\/     M anipulation  |                                                 |
\*---------------------------------------------------------------------------*/
FoamFile
{
    version     2.0;
    format      ascii;
    arch        "LSB;label=32;scalar=64";
    class       volVectorField;
    location    "0.5";
    object      U;
}
// * * * * * * * * * * * * * * * * * * * * * * * * * * * * * * * * * * * * * //

dimensions      [0 1 -1 0 0 0 0];

internalField   nonuniform List<vector> 
400
(
(0.00019468609313644626765 -0.0001923329151624018614 0)
(4.8673339235104958866e-05 0.00012522205744844942788 0)
(-0.001118322924257541531 0.00050130343543914202692 0)
(-0.0030889434417433925435 0.00075823014816002248187 0)
(-0.0055238574754021144489 0.0008807898711761488926 0)
(-0.0080961966605731898461 0.00088520972440039587086 0)
(-0.010520763837611654332 0.00079373554533241090416 0)
(-0.012565469904996458966 0.0006287287962654466468 0)
(-0.014053545104599341961 0.00041060146679130381979 0)
(-0.014862011383797918418 0.0001582068563796927823 0)
(-0.014921198533317806684 -0.00010982432791489614822 0)
(-0.014216715794009600685 -0.00037370634349643243191 0)
(-0.012793607023912070483 -0.00061144929298841219772 0)
(-0.010761607619432185523 -0.00079836970551275590873 0)
(-0.0082997648567122508934 -0.00090740084785759450928 0)
(-0.0056575155839411559594 -0.00091081015961410520618 0)
(-0.0031469410877301676362 -0.00078431990774695020847 0)
(-0.0011215042760469174764 -0.00051435593557601073759 0)
(6.5289366487569463256e-05 -0.00012358766046405663579 0)
(0.0002032561880223211488 0.00019953071495052560318 0)
(-0.00010068544057857374834 -6.9588821389332782951e-05 0)
(-0.0014718315688194124127 0.0014932097218813911513 0)
(-0.0049712980074629450553 0.0031210537678203059686 0)
(-0.010045235888367452098 0.0042557665712827704579 0)
(-0.016014603046731679808 0.004796065699099843517 0)
(-0.022213652125887470984 0.004772810840436022585 0)
(-0.028019865315084949153 0.0042653408238525168661 0)
(-0.032902215463213854707 0.0033710700210795585541 0)
(-0.036445652937201665489 0.0021912096570226688615 0)
(-0.038359038372982025289 0.00082748720305410143356 0)
(-0.038479894585440384269 -0.00061584067830964281474 0)
(-0.036780504429096888552 -0.0020286419030659955456 0)
(-0.033375630074625753374 -0.0032925600417248479003 0)
(-0.028529869375097469814 -0.0042814192292830524633 0)
(-0.022660706101203506591 -0.0048661128446300999303 0)
(-0.016330030850212607502 -0.0049266242214412222372 0)
(-0.010209907178388460958 -0.0043747190528737687348 0)
(-0.005016907869051128073 -0.003189675026432838012 0)
(-0.0014607501974743287987 -0.001501819689959776969 0)
(-8.9736457017940157331e-05 8.9718191399423244566e-05 0)
(-0.00047997766199370131383 0.001059734347685061407 0)
(-0.0032138825979120657153 0.0050058825553626331781 0)
(-0.0089954158982265275402 0.00868732080337516685 0)
(-0.016800510654982874631 0.011225378854871232229 0)
(-0.025661253137392644325 0.012393059477026837842 0)
(-0.034697050660243089482 0.012224196850201620584 0)
(-0.043076336056407128761 0.010878197120209620943 0)
(-0.050080723558669854034 0.0085743139709852367325 0)
(-0.055144778929350705965 0.0055560590737141852744 0)
(-0.057870771491842110112 0.0020781360028373991114 0)
(-0.058037423810898859655 -0.0015941816433624989794 0)
(-0.055608710677802916655 -0.0051813852648022610051 0)
(-0.050743250547112490889 -0.0083876369321891994929 0)
(-0.043802086720174535084 -0.010905071641425586812 0)
(-0.03535017438316673255 -0.012429081740879676862 0)
(-0.026142245849061145763 -0.012690003448599340014 0)
(-0.017072608352607102772 -0.011506821492422214526 0)
(-0.0090907463277820951125 -0.0088646948690013702143 0)
(-0.0032129690433720602648 -0.0050504262338417951067 0)
(-0.00046751265080993573359 -0.0010289284926169256842 0)
(-0.00080503250847069589974 0.0031136934188505365623 0)
(-0.0048027115929005553471 0.010454165097021916181 0)
(-0.012741549113387488218 0.016726742977452815908 0)
(-0.023055255787722259142 0.020907659939760951662 0)
(-0.034466138972900364768 0.022709794724884213579 0)
(-0.045911782651435924241 0.022204362447385807278 0)
(-0.056412423013395836258 0.019659562488382256729 0)
(-0.065129776490105817377 0.015447156548867167075 0)
(-0.071408205045645420372 0.0099871875138375365566 0)
(-0.074787589062738496493 0.0037244494127563997077 0)
(-0.075010974646780914643 -0.0028756662909566904109 0)
(-0.072033468024373020766 -0.0093236592723368368757 0)
(-0.066032827990859549461 -0.015104347729928165392 0)
(-0.057419695170126079653 -0.019685675776881184085 0)
(-0.04684296136246682285 -0.022545749232580163807 0)
(-0.035180061537622847601 -0.023225962936165255729 0)
(-0.023486604945192408184 -0.021416111692195895916 0)
(-0.012916034376490087218 -0.017068963185936911198 0)
(-0.0048207697999383854193 -0.010565472028397608281 0)
(-0.00079119706825589040857 -0.003074908072379771342 0)
(-0.001081336775723142421 0.0059662930159354223697 0)
(-0.006231689181542815828 0.017654923123656837691 0)
(-0.016190893228964376577 0.026990293212942575302 0)
(-0.028838446428871119392 0.032958067396725146403 0)
(-0.042569796629776848751 0.03531591159868909674 0)
(-0.056148372913188394906 0.03424105252432946972 0)
(-0.068478111105894495791 0.030156347516031401651 0)
(-0.078644170333323604183 0.023618133845486017491 0)
(-0.085943237926853474629 0.015246733400505654843 0)
(-0.089885227316557125832 0.0056957481669287031087 0)
(-0.090193700584339647763 -0.004353179194208640912 0)
(-0.086811799235289324739 -0.014184588897836374402 0)
(-0.079914030473840366731 -0.023045482693222478499 0)
(-0.06992224889492158757 -0.030155768902992458047 0)
(-0.057521930888212405297 -0.034744175380927479202 0)
(-0.043667754848614522001 -0.03611993543282909086 0)
(-0.029546998995996606036 -0.033785905154715294152 0)
(-0.016517129522054540408 -0.027585237943460415994 0)
(-0.0062976781085434460628 -0.017888334386815123861 0)
(-0.0010709949715365344076 -0.0059301853761460450107 0)
(-0.0013320885217712168797 0.0095360869166204158959 0)
(-0.0075604930317623381467 0.026495989075851513611 0)
(-0.019426127332318094548 0.039357626929095237966 0)
(-0.034256708423943668662 0.047230737501285230406 0)
(-0.050113758209059722226 0.050030772515705888848 0)
(-0.06559377815801134548 0.048129699951575032058 0)
(-0.079510273948192475291 0.042166988173371465487 0)
(-0.090908053196544033603 0.032922282201195231244 0)
(-0.099072597373795631692 0.021236864262228975775 0)
(-0.10351203382472552728 0.0079811712248586217516 0)
(-0.103944274144040949 -0.0059461460854255835176 0)
(-0.10029678395886583442 -0.019604593561229413656 0)
(-0.092719437068771420885 -0.031999938322069133856 0)
(-0.081609495193331590968 -0.042089833211280590353 0)
(-0.067645704203548581712 -0.048822164442898129122 0)
(-0.051819540716205467201 -0.051219866030904399878 0)
(-0.035424766058858421502 -0.048519166796224096061 0)
(-0.020023452201744191409 -0.040349999215646824291 0)
(-0.0077273546190897010252 -0.026954672843212981043 0)
(-0.0013361883611205109708 -0.0095341361437024530617 0)
(-0.0015784418887301236538 0.013784732537189092749 0)
(-0.008851568204275905849 0.03689939227245425668 0)
(-0.022536338109684358327 0.053715101766798029059 0)
(-0.039398890685920145982 0.063568102649491989298 0)
(-0.057165607605945412129 0.066654440300182790646 0)
(-0.074283552080743067703 0.063645994530890523388 0)
(-0.08951010350930847792 0.05547358682121030643 0)
(-0.10189199992184304333 0.043183604272472829455 0)
(-0.11074425272424534561 0.027855041100308935292 0)
(-0.11560442844457302636 0.010572217225035563173 0)
(-0.11620079258355039964 -0.007564015544122794886 0)
(-0.11244263852154658123 -0.025406398230992763287 0)
(-0.10443351060416139475 -0.041732066321436812883 0)
(-0.09250748710440148681 -0.055233434301432349223 0)
(-0.077287056801946141249 -0.064548941458851302744 0)
(-0.059749981882119919396 -0.068352781892107791761 0)
(-0.041258025185230737253 -0.065515323394720770267 0)
(-0.023564756070286168449 -0.055323972493289845509 0)
(-0.0091952782720430958213 -0.037755973760457015032 0)
(-0.0016142482037254585799 -0.013883122243134005461 0)
(-0.0018383473210138677727 0.018709938920847195981 0)
(-0.010156836490650439364 0.048819160216301477062 0)
(-0.025583422366497490102 0.069944241966065578975 0)
(-0.044289367067733953487 0.081768549121187902862 0)
(-0.063669166576594132811 0.084915208536917974325 0)
(-0.082055690956999702279 0.080481539750503719444 0)
(-0.098203640142701623117 0.069776180052317629543 0)
(-0.11122022885926420577 0.054157519885899757517 0)
(-0.12050314301547848661 0.034952094635395031252 0)
(-0.12565953977862018287 0.013441585333531732432 0)
(-0.12645010201825060414 -0.0091037481252880421423 0)
(-0.12276668790052648605 -0.031368352146674494119 0)
(-0.11464430973068961972 -0.051933281685285090368 0)
(-0.10230927450235484388 -0.069239246965515574561 0)
(-0.086264922931597945444 -0.081595628345209683663 0)
(-0.067403390738908691704 -0.087262418858712581526 0)
(-0.047088737203117535246 -0.084626647003905902666 0)
(-0.02722726705059533292 -0.072471284654282819293 0)
(-0.010771506890242713017 -0.050332069468558553182 0)
(-0.0019290892082387981008 -0.019022219758596668054 0)
(-0.0021286945103049332781 0.024338358281060273186 0)
(-0.011517043681550558423 0.062228347265499410479 0)
(-0.028588139575949036986 0.087896523617163560549 0)
(-0.04885803376308880952 0.10154479503568898668 0)
(-0.069401873531340543821 0.10441440988535255485 0)
(-0.088501118146132790043 0.098182119695565325812 0)
(-0.10499046812007656326 0.084632296729623232578 0)
(-0.11812037980636015677 0.065478417702050636939 0)
(-0.12744219181221030923 0.042292810725522503312 0)
(-0.13268529813635149273 0.016520410447025814932 0)
(-0.1336735317900804576 -0.010453389160303640584 0)
(-0.13028747956789352158 -0.037207337715217773944 0)
(-0.12247253507144295614 -0.062184444024468266132 0)
(-0.11029672739232118661 -0.083611630320202010025 0)
(-0.094064901302141262773 -0.099468245637160890293 0)
(-0.074482358633314496577 -0.10754036117038839881 0)
(-0.052809494746895051243 -0.10559866708256571144 0)
(-0.031025360580593110138 -0.091717265624685170855 0)
(-0.012504473911375066017 -0.064746852383572098266 0)
(-0.0023023585994829971063 -0.025034745035152378145 0)
(-0.0024703229611316148903 0.030722181282599993202 0)
(-0.012968854758148570111 0.077096212404000316609 0)
(-0.031523933558477684747 0.10734375866626445772 0)
(-0.052911364172687956609 0.12245146441636992063 0)
(-0.073923808706837720872 0.12454188478545386021 0)
(-0.09289786762688510835 0.11606246005830225809 0)
(-0.10887142660423032581 0.099379795292968364784 0)
(-0.12135069101800435853 0.076596061947047891505 0)
(-0.13013096099914092663 0.049508973483117599268 0)
(-0.13512886972467996749 0.019669937301955060099 0)
(-0.13627110057352684325 -0.011499739938362479874 0)
(-0.13344056389702668719 -0.042563334106568893878 0)
(-0.1264769625130648667 -0.071914994368674378666 0)
(-0.11523825543543053662 -0.09763975625233665967 0)
(-0.099737659126661937226 -0.1174183411235409924 0)
(-0.080359937525775471112 -0.12852389585687729046 0)
(-0.058102888117155873648 -0.12797129968141984779 0)
(-0.034874365225382876476 -0.11287129983402559297 0)
(-0.014419206245638582775 -0.081045348966513677813 0)
(-0.0027567980975207566352 -0.032032043189018061247 0)
(-0.0028961980354134009459 0.03794433900639796603 0)
(-0.014555328849840688463 0.093359881597525992691 0)
(-0.034304002287820260786 0.12790594253138728997 0)
(-0.056082656141366281355 0.14378452974640534845 0)
(-0.076495521984395242754 0.14436848101356114515 0)
(-0.094110562082653170801 0.13310799313916948927 0)
(-0.10834433704816823218 0.11305594744375178917 0)
(-0.11910164484499105586 0.086713545735314659368 0)
(-0.12652610677636738634 0.056054489319880662634 0)
(-0.13079268305624988655 0.022651987016783739493 0)
(-0.13197584467724135515 -0.01214227309928206204 0)
(-0.12998278965090606651 -0.046994284025391110104 0)
(-0.12454282731550057883 -0.080372590333737559121 0)
(-0.11526151830962641509 -0.11033531296865618787 0)
(-0.10176508338542147869 -0.13434580437430779232 0)
(-0.083957182343441377759 -0.14917025517200219187 0)
(-0.062352066983783829834 -0.1509442558283425051 0)
(-0.038547965013555271496 -0.13551456768222838734 0)
(-0.016513636116410927712 -0.099192905248744953073 0)
(-0.0033212944920784745646 -0.040146135656493955879 0)
(-0.0034640750533206526342 0.046138007396105684688 0)
(-0.016333970826155289752 0.11088353932479068364 0)
(-0.036738377270954185316 0.14894102711415171947 0)
(-0.057726038202780612096 0.16443996168301788785 0)
(-0.075928458327346112777 0.16251192387166166209 0)
(-0.090427085129165071797 0.14786902705770688105 0)
(-0.1012518587679290677 0.12432401204066316491 0)
(-0.108868690811541588 0.094739847938489121781 0)
(-0.11387079528991714272 0.061173937428609818923 0)
(-0.11675274637840700465 0.025105242182957933361 0)
(-0.11777693727797478029 -0.012312240370256820332 0)
(-0.11690362651211824718 -0.049986778288669667103 0)
(-0.11376678953895191793 -0.086614466083733201995 0)
(-0.10770500402257697503 -0.12038888736087263731 0)
(-0.097884714496196109645 -0.14870590242382933366 0)
(-0.083563420393456877555 -0.16791135885889726942 0)
(-0.064493201395311158808 -0.17319945556887922367 0)
(-0.0415966407200910257 -0.15883761863835271777 0)
(-0.01874464168012395307 -0.11898571819858766441 0)
(-0.0040377384413480838649 -0.04952744683131552611 0)
(-0.0042736645740305452545 0.055524921906887264589 0)
(-0.018365420767828325582 0.12937855721285942967 0)
(-0.038412312882688370852 0.16936054223379104489 0)
(-0.056689295794498439918 0.18271017466287692299 0)
(-0.070308650481515605479 0.17697600997162823977 0)
(-0.079291373761118860708 0.15836372733204859276 0)
(-0.084561647809345996674 0.131431762686433945 0)
(-0.087294908799056658566 0.099282165592350382632 0)
(-0.088596128855803105151 0.063905431454541514191 0)
(-0.089301989400148315545 0.026540848024467711408 0)
(-0.089879864953326393806 -0.011992881690248997223 0)
(-0.090372885669984415191 -0.050989116012388799315 0)
(-0.090363319591971705269 -0.089537590524676302639 0)
(-0.088961584660192882801 -0.12616964498037247511 0)
(-0.084866385432375623932 -0.15844532897902272039 0)
(-0.076570125267911029465 -0.18250245402182968535 0)
(-0.062763506266018051494 -0.19267135725152820247 0)
(-0.043182922721806724087 -0.18139623110173366816 0)
(-0.020982976223403025651 -0.13990072346458282126 0)
(-0.0049670504594809053445 -0.060344758913367116393 0)
(-0.0054759805483841073048 0.066437209504756969403 0)
(-0.020623686591819935521 0.14817772937857420779 0)
(-0.038371443031125530843 0.18727205821649556272 0)
(-0.05084113029442348386 0.19597186229150123649 0)
(-0.0564989427615849929 0.184966081501841767 0)
(-0.056879599637500659337 0.16202152650032602965 0)
(-0.054063033444318668586 0.13224292318673627755 0)
(-0.0499939823149820467 0.098716179272253498644 0)
(-0.046251254189108616244 0.063147414108959853962 0)
(-0.043954955113252397458 0.026376123167819596343 0)
(-0.043745673309899785197 -0.011234221332218748135 0)
(-0.045769215107887652183 -0.049474312705926275224 0)
(-0.049633897054863852782 -0.087970749525731056773 0)
(-0.054342758978595334662 -0.12580526079300874409 0)
(-0.058242893033687334614 -0.1610085441704243725 0)
(-0.059079396459493074834 -0.18988925027122777189 0)
(-0.054263531957353200452 -0.20624398876663868618 0)
(-0.041737061016957809068 -0.20070155018693452975 0)
(-0.022874551077408544764 -0.16077208774328166641 0)
(-0.0061774893298454829418 -0.072735951111099803046 0)
(-0.0072155086988771703627 0.07923991244529433875 0)
(-0.022642732533306765552 0.16565935363629294419 0)
(-0.034338715386925712514 0.19930225439821314115 0)
(-0.036113618518876879071 0.20024005198939498484 0)
(-0.029278131503230699073 0.18273726546771409951 0)
(-0.017468464789762223888 0.15575173002188988369 0)
(-0.0039883381042742334713 0.1244208636492911968 0)
(0.0086078317243730405328 0.091394928594173571734 0)
(0.018487264706495837308 0.057830090763856888125 0)
(0.024432244423184697885 0.024029664815009794954 0)
(0.025735147723374547646 -0.010155444750667114856 0)
(0.022152548120443552038 -0.045045203752934533104 0)
(0.01394225479269989125 -0.080866427325782488933 0)
(0.0019877047434487937067 -0.11741204258668160032 0)
(-0.012009097110849601894 -0.15351336865061920856 0)
(-0.02533127548223763556 -0.18619582795512487627 0)
(-0.034181132905938160782 -0.2094241629635699431 0)
(-0.034214113128365232497 -0.2125793070252712802 0)
(-0.02343360786423152875 -0.17913618140539069867 0)
(-0.0076529694579402880381 -0.086620631421764571201 0)
(-0.0092934322791497284144 0.094508496734101554715 0)
(-0.022410092559931982237 0.17856211054348331002 0)
(-0.02089172885390727652 0.19992972658971153166 0)
(-0.0046835806671136400586 0.1900208359599409591 0)
(0.020016394267692055875 0.16590887970596424061 0)
(0.047378269811023554503 0.13649543587750970208 0)
(0.073344002165314295394 0.10602505783893030611 0)
(0.09529881837875539552 0.076170722814176292093 0)
(0.11162597943605186146 0.047301210534254983786 0)
(0.12134224916667943339 0.019140514795061881748 0)
(0.123859341667969719 -0.00891126963481687559 0)
(0.11887810380648103359 -0.037601960554839782003 0)
(0.1064066367822232434 -0.067675542139481695281 0)
(0.086912167118623914752 -0.099651812993390820328 0)
(0.061634154767326351787 -0.13339782226880228522 0)
(0.033068777703919582933 -0.16726840465594022822 0)
(0.0055318849573497818478 -0.19651003036140521352 0)
(-0.014539216261448287271 -0.21078923202381119606 0)
(-0.019945102983125000823 -0.19063955571287094504 0)
(-0.0089166765560011202602 -0.10175876064399833054 0)
(-0.0097710737955773660501 0.11383111149877507551 0)
(-0.013344450338741145265 0.18130704620582896447 0)
(0.014227509054522084059 0.18142070525574269246 0)
(0.0579056636197879393 0.15923013567786611921 0)
(0.10512142771184423973 0.1309069922870481073 0)
(0.14942894608297976888 0.10272102066428129286 0)
(0.18749366383581836382 0.076798631411357815013 0)
(0.21767679130524636433 0.053386025577917731177 0)
(0.23926172681709176326 0.032016041983688472983 0)
(0.25191426761248691957 0.011973032432976812162 0)
(0.2553868396125448248 -0.0075697591161304426249 0)
(0.24939935806856780576 -0.027526009488732253172 0)
(0.23363194798350425674 -0.048884350904954118611 0)
(0.20783973818722398241 -0.072663510314911194943 0)
(0.17217471852812751831 -0.099715617814344556513 0)
(0.1278305383110349136 -0.13012649214302166034 0)
(0.077984723170806832804 -0.16173817906067211592 0)
(0.029219936886685268784 -0.18730890763563654011 0)
(-0.0052700720990387986409 -0.18853208877146185318 0)
(-0.0076556676721400256092 -0.11826325035107550232 0)
(0.0011130820617756328333 0.12888577570892448265 0)
(0.024397424751600033099 0.15478082931387582288 0)
(0.097023643430190653625 0.12867538127869421194 0)
(0.17628034738029110806 0.099900622049560280913 0)
(0.24581001383402065197 0.075142666245180678164 0)
(0.30330015877305244176 0.054895095763225341956 0)
(0.34878326844763840597 0.038513993967703746835 0)
(0.38285840858574682333 0.025033446010079073857 0)
(0.40631539910332753474 0.013576037149266384843 0)
(0.41975299816202749081 0.0034105961854063197511 0)
(0.42340073688892437831 -0.0061198627799990733614 0)
(0.41707347205772415943 -0.015682609654718591974 0)
(0.40014712761212362091 -0.026055344325164580405 0)
(0.37155790236759833611 -0.038208881393708760132 0)
(0.32994028577270712033 -0.053375097297925659656 0)
(0.27406196110913372266 -0.072960755373878666274 0)
(0.20340690610734973864 -0.097966114897708442277 0)
(0.11986283435996093749 -0.12745356695719664564 0)
(0.03929245232385016745 -0.15281234801554660629 0)
(0.0056962173458943547721 -0.12542848087161645454 0)
(0.069997446289893516802 0.060664223276662154749 0)
(0.15372346096325611997 0.031271743109186088405 0)
(0.28268729275287529656 0.008336891324971149736 0)
(0.38995189905183419432 -0.0010219494324544618584 0)
(0.46760986329352038915 -0.0048080585338291410846 0)
(0.52447175465420758922 -0.0064319814693614141277 0)
(0.56606226112756086177 -0.007120736104896107331 0)
(0.59554384610452515414 -0.007300318594287114396 0)
(0.61502802387834687448 -0.0070731265653146257327 0)
(0.62580332736961841178 -0.0064234587022589609978 0)
(0.62844916597647504375 -0.005304755261856808346 0)
(0.62290032351722723902 -0.0036779141246619478749 0)
(0.60842490174174923556 -0.0015540730899482047001 0)
(0.58350124823591065226 0.00096191498041037323992 0)
(0.54561724946897327548 0.0035833461724732187069 0)
(0.49103928821355136147 0.0056301626049212946667 0)
(0.41379180029346218639 0.0055281130228347404726 0)
(0.30451361695180212408 -0.00030076733013451820847 0)
(0.16898563770860547395 -0.018889915241391753986 0)
(0.072228940297962535011 -0.045844792119615104808 0)
(0.39775365045326849245 -0.21080952330309335463 0)
(0.5540808134346274505 -0.18974773463901756232 0)
(0.6767500238963336523 -0.13632843244178133313 0)
(0.75171698641574746791 -0.098457284942362000013 0)
(0.79545124275764766963 -0.072250232447130954827 0)
(0.82360226466877772822 -0.053765515038627573197 0)
(0.84265443874942680402 -0.04038749898249634207 0)
(0.85544899033813037725 -0.030113592838233834564 0)
(0.86353803845366694514 -0.021508335247605279983 0)
(0.86777129307102329747 -0.013540927951176704586 0)
(0.86852307495764047296 -0.0054005967420674939536 0)
(0.86578811938284938599 0.0036401940133657518898 0)
(0.85916922063596445902 0.014353205408219740086 0)
(0.84775074027206398508 0.027694955955855617147 0)
(0.82980562094899312786 0.045027235204910504018 0)
(0.80215115154092064831 0.06842877510664838181 0)
(0.75797564856179888704 0.10102220710291112682 0)
(0.68093049883430423197 0.14774039864698207403 0)
(0.54924523030860039619 0.21282945954961929313 0)
(0.36766978799321387017 0.23264478476453839817 0)
)
;

boundaryField
{
    movingWall
    {
        type            fixedValue;
        value           uniform (1 0 0);
    }
    fixedWalls
    {
        type            fixedValue;
        value           uniform (0 0 0);
    }
    frontAndBack
    {
        type            empty;
    }
}


// ************************************************************************* //
