/*--------------------------------*- C++ -*----------------------------------*\
| =========                 |                                                 |
| \\      /  F ield         | OpenFOAM: The Open Source CFD Toolbox           |
|  \\    /   O peration     | Version:  2412                                  |
|   \\  /    A nd           | Website:  www.openfoam.com                      |
|    \\/     M anipulation  |                                                 |
\*---------------------------------------------------------------------------*/
FoamFile
{
    version     2.0;
    format      ascii;
    arch        "LSB;label=32;scalar=64";
    class       volScalarField;
    location    "0.9";
    object      p;
}
// * * * * * * * * * * * * * * * * * * * * * * * * * * * * * * * * * * * * * //

dimensions      [0 2 -2 0 0 0 0];

internalField   nonuniform List<scalar> 
400
(
-0.039614286938682352623
-0.044494919588219890294
-0.05016935113803257934
-0.054173495099583725276
-0.055139443105225477426
-0.052496976819037623196
-0.046253234794278424991
-0.036814573818339177413
-0.024856958984140344049
-0.01124143629425595689
0.003046333862509582012
0.016950336345790750076
0.02940528939657854543
0.039414535470323842914
0.046152095056689483588
0.049095755499917459463
0.048197247494521734679
0.044077831595415263577
0.038231306925257696472
0.033255312933406458442
-0.034775720605660823126
-0.039791375407466966774
-0.044180757639522366675
-0.046793216539396983999
-0.047006319216944120187
-0.044422183199881212778
-0.039021179888351624487
-0.031097071822363250848
-0.021164983316669602059
-0.0099004955686898040573
0.0019093738625402829207
0.013415886806419927493
0.023765579032360480832
0.032169648159522050423
0.0379875853833432503
0.040828517827347018954
0.040676810721182468655
0.037970819187020943275
0.033435512213614848598
0.028330937794104445876
-0.02877930630220784658
-0.035661879787698025357
-0.040378977705403995557
-0.042708892359966922625
-0.042735205498113895684
-0.04026480000426069239
-0.035333115756975716493
-0.0282173194920705174
-0.019362475754239563686
-0.0093431070531878410851
0.0011690391083349670545
0.011443726094116259476
0.020740016464842615795
0.028364731854253321525
0.033739714941907500423
0.036482079979662199176
0.036514056087176616217
0.034065814261908980431
0.029158211295757220649
0.02213636786847952842
-0.023768515322896793113
-0.03313211517679184176
-0.03894136867943755187
-0.04157619368795886089
-0.041700517022626261421
-0.039308484830014589484
-0.034522697984810384042
-0.027656034138326925781
-0.019141473335518330995
-0.009511584781422147486
0.00061630168650493230825
0.01056538106615447295
0.019635657220818891755
0.02715112074115352131
0.03251402602229554184
0.035274160240970839353
0.035243928013757593043
0.032459688859379699777
0.026373839231997577015
0.016768551844258499511
-0.021131162735692359672
-0.032993263470959689754
-0.040045366547243409217
-0.043104931620818562332
-0.043323510813770650663
-0.040858540587366813657
-0.03592389498552649163
-0.028886141663303725041
-0.020191397284345980606
-0.0103591079408397891
1.6440121905405334586e-05
0.010277543984939860669
0.019727055300040943764
0.027664302477760711191
0.033428606620348973177
0.036463700667082606099
0.03644917189559919446
0.03323917894102722953
0.025804342874385856332
0.013537402430605156162
-0.021878369071922160877
-0.036137397544540435235
-0.044391370231050435169
-0.04780468872125442914
-0.04795891804262172875
-0.045159588848250581394
-0.039712938020528165683
-0.032048956246236819101
-0.02264199381187884802
-0.012016537784946202533
-0.00076424416463452690077
0.010453256616900150067
0.020915142850560682064
0.029865482328606786366
0.0365468705255093812
0.040263805378354833309
0.040538039604701314733
0.037036843501640666354
0.02828740140921496421
0.013380663420565744662
-0.026875763838866310179
-0.043421286441617946983
-0.052731216316230775099
-0.056285671030148885785
-0.056082365143466664237
-0.052576629165569835345
-0.046172944642675267657
-0.03737222479317067747
-0.026685369811496890968
-0.014650659585354167819
-0.0018667311264207715835
0.010989148686685830392
0.02315685400939674482
0.033803671358866506369
0.042046832293426483762
0.047016870358769918825
0.048041698960331523371
0.044571193587855405249
0.034668840998022767974
0.017138861086468074046
-0.037015177984421179791
-0.055737540343449500091
-0.065856368283314301038
-0.069191636629479136289
-0.068192076843399701547
-0.063486264751267201811
-0.055590831935255380358
-0.045084344015544938755
-0.03251553999036340542
-0.018434276769028968418
-0.0034425849002155659885
0.011769055226027199182
0.026399264852047566593
0.039528336898941425492
0.050125573860445568619
0.057109998132909546575
0.059564613315757096446
0.05665878526827915207
0.045906899257024874617
0.025771891604409215282
-0.053348298743162887725
-0.07411794413825094352
-0.084668947840351824197
-0.087244154459796635637
-0.084832915952378101787
-0.078286116606872943602
-0.068255937876670461084
-0.0554044646431522958
-0.04031146148957931441
-0.023523469178809406493
-0.0056269021310419225709
0.012693851496078278202
0.03061117533786964981
0.047123066569258555136
0.061037709847792137596
0.071024095808432927135
0.075852984464800099484
0.074312354983107245521
0.063210813845902297237
0.040541498138301240717
-0.077210335139846611452
-0.099826161504503810318
-0.11022468355336607904
-0.11123904945060959781
-0.10655924056528263966
-0.097337669745974894631
-0.084394058554850673315
-0.068476005264459599564
-0.050175914594034122518
-0.030006095171497437768
-0.0084995368593754529879
0.0137056012567588828
0.035792566710970197263
0.056703289200441181483
0.075088771477182986169
0.089335706088367120015
0.097822459342394918469
0.098813052380052793233
0.088169889970243373045
0.063188958857597232743
-0.11038511188046443157
-0.13447119796110934553
-0.14376970319190002234
-0.1420168103086911493
-0.13386111887899942996
-0.12086894892863492279
-0.10406231610531693765
-0.084264504360441611075
-0.062043470792315133511
-0.037824794360590274778
-0.012026819479230064711
0.014824425258400884473
0.041988975318253199398
0.068410290113865845907
0.092616620988527270653
0.11270148737777514747
0.1265695056665164242
0.13177736176630178155
0.12289983547752322823
0.096155592784846144472
-0.15538305857953177425
-0.18016438810458615394
-0.18676424825731743895
-0.18039261377224899419
-0.16704245264466932586
-0.14883176476439077818
-0.12700553882228751701
-0.10242444636694469917
-0.075563730197046694026
-0.046680170201890226755
-0.015987667976240522993
0.016196248227726941366
0.049310103403563808333
0.082399965012617995552
0.11395582761197557697
0.14181488228949412633
0.16335145523986258076
0.17520636752729568109
0.17021764863514851629
0.14290516068196529309
-0.21598865376431533591
-0.23976458682963702751
-0.24087499294980466158
-0.22701433789430877641
-0.20602594399732154784
-0.18070076180178831771
-0.15247364793339232558
-0.12214430238035960119
-0.089975694442530215755
-0.055933809962879957323
-0.019905313680696128803
0.018130086532904352709
0.057931664825024424548
0.098804901996394564612
0.13936156960141196648
0.17730868212171502218
0.20950903968015779921
0.23150399162110996132
0.23388238881125761326
0.20848374031291730391
-0.29846366201301360865
-0.31737375365662490179
-0.30798481276075667656
-0.28217126078262111388
-0.25011122422655857056
-0.21525256423878680323
-0.17904939639326566958
-0.14202563213319641111
-0.10403085547326118565
-0.064566522534379569564
-0.023034716833775861072
0.021082461662806164376
0.068047272436132427709
0.11764622226768091384
0.16887864613923686541
0.21959991952683718952
0.26634804466602163275
0.30352222243352727782
0.31905392588643100016
0.30064600190295820425
-0.41359503203058789467
-0.41884028619386698411
-0.38993862624323422095
-0.34536917859404681064
-0.2975869215643818233
-0.2502911417766537916
-0.20449849944748690889
-0.16003662767582024773
-0.11602212929454806811
-0.071259900781195428809
-0.024483203370773969076
0.025499909294710042251
0.0796640965871705381
0.13856061990295803765
0.20197454145907386969
0.26842646917570650578
0.33463866087462812438
0.39419541797118490267
0.43254004968679543586
0.43147912870341403879
-0.57789630601347363736
-0.54958945851737295296
-0.48585603468805144134
-0.41327337456903673329
-0.34429867367063887729
-0.2817328362182173751
-0.22525643742877338171
-0.17328633442923654928
-0.1237607844800616419
-0.074525739630451406925
-0.023473083679225993647
0.03141407393869043857
0.092014854762729386684
0.15995095570569231591
0.23630836094852653018
0.32108757757000255806
0.41217652119120956611
0.50338558732020066699
0.57984939759985243413
0.61734211415373341225
-0.8192116343549998847
-0.71114624261849679332
-0.5878392994793024684
-0.47704074018796482903
-0.38217904137142894028
-0.30290102545725261507
-0.23620275444533922471
-0.17807853157104960862
-0.12478120670853762308
-0.072997633094240413354
-0.019701715312472840858
0.038008663210005469435
0.1030126427133549738
0.17824929117889959373
0.266668769812204276
0.3708355724822644528
0.4912607633411916197
0.62401297729530469383
0.76180176341004657292
0.88262558890652642596
-1.238485111210882339
-0.93129153142362641749
-0.69955591491466218024
-0.53581564178305596258
-0.40998328576771830845
-0.31313388943381265106
-0.23746923968733574251
-0.17517903610991683583
-0.12024255334141648044
-0.068046530106409860994
-0.01467455170394458934
0.043660658628862362984
0.11084805483189363873
0.19135673535509076237
0.29068763331995278731
0.41552084717428977578
0.57145748517710570624
0.76170910643193823208
1.0073225632079774172
1.3177419671045009775
-2.0740310440202724962
-1.2878080670577942701
-0.84586061175103122167
-0.60490933903213695011
-0.44123723506092499269
-0.3251294613714386661
-0.24072674044244535274
-0.17502293564495596812
-0.11922775829545655124
-0.067271982736788416002
-0.014316360371000431961
0.044052661952313693083
0.11273065753595619409
0.19778879355547177021
0.30783390560677476033
0.45555336401557644521
0.65675610346569146536
0.93536985565356300931
1.3869139731390749404
2.130534877338015054
-2.6363913465039812145
-1.2816163051803632911
-0.73069710576724722362
-0.49250822183513853769
-0.34760670343322325193
-0.25163686514474314926
-0.18527186997138653246
-0.13549914750215505399
-0.094311767967781026667
-0.056474756260736586055
-0.018001272252453064115
0.024698970085089047566
0.075519720111098739834
0.13955557900239975999
0.22460946603540729583
0.34401647578795646609
0.5205969376741632626
0.80325671821929212069
1.3752992516326094652
2.6013833851979568657
)
;

boundaryField
{
    movingWall
    {
        type            fixedValue;
        value           uniform 0;
    }
    fixedWalls
    {
        type            zeroGradient;
    }
    frontAndBack
    {
        type            empty;
    }
}


// ************************************************************************* //
