/*--------------------------------*- C++ -*----------------------------------*\
| =========                 |                                                 |
| \\      /  F ield         | OpenFOAM: The Open Source CFD Toolbox           |
|  \\    /   O peration     | Version:  2412                                  |
|   \\  /    A nd           | Website:  www.openfoam.com                      |
|    \\/     M anipulation  |                                                 |
\*---------------------------------------------------------------------------*/
FoamFile
{
    version     2.0;
    format      ascii;
    arch        "LSB;label=32;scalar=64";
    class       surfaceScalarField;
    location    "0.9";
    object      phi;
}
// * * * * * * * * * * * * * * * * * * * * * * * * * * * * * * * * * * * * * //

dimensions      [0 3 -1 0 0 0 0];

oriented        oriented;

internalField   nonuniform List<scalar> 
760
(
1.0077362599874865392e-08
-1.0077407589598647897e-08
-2.3700398778930136704e-08
3.3777795065114847792e-08
-1.0347615816967778261e-07
7.9776139781359717196e-08
-2.1461115892273784626e-07
1.111355454914640411e-07
-3.4051658239681764791e-07
1.2590570943734803774e-07
-4.659410491490541832e-07
1.2542414014204115551e-07
-5.7801248223276399482e-07
1.12070572046967746e-07
-6.665653960573973288e-07
8.8552045290598517265e-08
-7.2413585976318032309e-07
5.7570209579351327923e-08
-7.4591529816535537809e-07
2.1780053606939374687e-08
-7.2979373800491779976e-07
-1.6120398731720382449e-08
-6.765167321864579213e-07
-5.3276003285197929973e-08
-5.8992380081283674294e-07
-8.6592710809227372139e-08
-4.7719587822845033239e-07
-1.127286248877427692e-07
-3.48998768276359209e-07
-1.2819831466275123673e-07
-2.1933902940813838088e-07
-1.2966073975534884869e-07
-1.0484889657748616024e-07
-1.1449037514659196737e-07
-2.3202738198908656256e-08
-8.164554089741302529e-08
1.0719842695578306555e-08
-3.3921510532606230967e-08
1.0720687793537327462e-08
-3.2183593810037332239e-08
2.210622548158428311e-08
-1.5928595318782339121e-07
1.6087968878879194295e-07
-3.7444833839676090068e-07
2.9493816244382554016e-07
-6.5088705377423822504e-07
3.875744062971250931e-07
-9.5569463313306583319e-07
4.3071399980817136454e-07
-1.2563222739038628785e-06
4.2605259546059255838e-07
-1.5238882423958831334e-06
3.7963683170551774562e-07
-1.7347885960028805746e-06
2.9945186963748647385e-07
-1.8713865073958598542e-06
1.9416706083337263529e-07
-1.9223399696093621068e-06
7.2732611424299395384e-08
-1.8828825914727031061e-06
-5.5577923577244008468e-08
-1.7551713948313445609e-06
-1.8098647801697455713e-07
-1.5486687039364440149e-06
-2.9309425407937991645e-07
-1.2803995674616575945e-06
-3.8099688590580068871e-07
-9.7481102733339963085e-07
-4.3378677199092887132e-07
-6.6282572608376146775e-07
-4.4164679928982367465e-07
-3.7954486549739197567e-07
-3.9777240735241524819e-07
-1.5997852753414097251e-07
-3.0121276778224754014e-07
-3.1612694557967563462e-08
-1.6228745189235844534e-07
-2.0891046322184611594e-08
-8.0498772168011822483e-08
1.0260537842184893641e-07
-3.0489202328120488537e-07
3.852725457203849802e-07
-6.4504152765897770126e-07
6.3508687178944464261e-07
-1.0612635069894074076e-06
8.0379580574488094648e-07
-1.5090430995092273508e-06
8.7849381753759619716e-07
-1.9448066970975151361e-06
8.6181722274065127865e-07
-2.3296688954253018509e-06
7.6450021108376570308e-07
-2.6315888587610128952e-06
6.0137231735456971731e-07
-2.8264964737057886966e-06
3.8907405679449490653e-07
-2.8989057074906492881e-06
1.4514046856248233176e-07
-2.8423694154589341002e-06
-1.1211548760020974487e-07
-2.659935792336190728e-06
-3.6342047140535240367e-07
-2.3645832221882917215e-06
-5.8844606945819303572e-07
-1.9794423683497221253e-06
-7.661363289466260464e-07
-1.537460270345055366e-06
-8.7576765737607843043e-07
-1.0800310686190149337e-06
-8.9907570302109181329e-07
-6.5406286954644287094e-07
-8.2374137025482349255e-07
-3.0705933018424920355e-07
-6.4821755391259862555e-07
-8.0071679323771995492e-08
-3.8927595938805910005e-07
-1.0096228051598259798e-07
-1.2313426815054000463e-07
2.257402112569127488e-07
-4.3920794200784630366e-07
7.0134629060632879429e-07
-8.9597411652220692642e-07
1.0918523627504642743e-06
-1.4380530756571575687e-06
1.3458736851957417377e-06
-2.0096780146481064943e-06
1.4501180954830965487e-06
-2.5586429037398564285e-06
1.4107825045400776981e-06
-3.0392895596999590049e-06
1.2451481899041622997e-06
-3.4143469921219006061e-06
9.7643114855345196082e-07
-3.6559296584750590882e-06
6.3065722715036783986e-07
-3.7460938535382259666e-06
2.3530388875361153078e-07
-3.6772757070620659174e-06
-1.8093522361730462871e-07
-3.4527796207398705505e-06
-5.8791797794552827432e-07
-3.0873048344361195065e-06
-9.5392124868480356791e-07
-2.6073171837807934642e-06
-1.2461231388572226395e-06
-2.0509045751122512419e-06
-1.4321787372836889909e-06
-1.4666346442145752129e-06
-1.4833443581827842303e-06
-9.1093657518242976709e-07
-1.3794391549347366686e-06
-4.4376784316201741142e-07
-1.1153870091493371365e-06
-1.2299640209379460601e-07
-7.1004845650907844096e-07
-2.2395897691968565595e-07
-1.6074382991963183845e-07
3.8648439773202288567e-07
-5.6185034248198815224e-07
1.1024534563955213649e-06
-1.127551060688346131e-06
1.6575531085141650539e-06
-1.7854824140180681056e-06
2.0038041572109581362e-06
-2.4683310126803715843e-06
2.1329653787878076989e-06
-3.1162889368615356527e-06
2.0587396689496405969e-06
-3.6788178666424304953e-06
1.8076775831871139903e-06
-4.1155679326047012303e-06
1.4131826906207366303e-06
-4.3967159463339730314e-06
9.1180677768543697282e-07
-4.5030783818288517656e-06
3.4166691396957911993e-07
-4.4263029582206523077e-06
-2.577113825870334643e-07
-4.1693119826318752425e-06
-8.4491054606528409364e-07
-3.7470026982227219352e-06
-1.3762320075718654107e-06
-3.1870263350320166451e-06
-1.8060999982439985862e-06
-2.5302832201402714658e-06
-2.0889211371989472229e-06
-1.8306248368942548056e-06
-2.1830013229125077777e-06
-1.1532283838246183062e-06
-2.056834389886712697e-06
-5.7132710514048835686e-07
-1.6972879602715407485e-06
-1.6160383877757425077e-07
-1.1197722899316109003e-06
-3.8556358405787659378e-07
-1.9543150583280375027e-07
5.8191568018141922217e-07
-6.764932684139914169e-07
1.5835160946883890761e-06
-1.3445599376391152112e-06
2.3256206659945773177e-06
-2.1097689082853416642e-06
2.7690131533123161288e-06
-2.8932089876993080546e-06
2.916404339134280033e-06
-3.6283268872396386132e-06
2.7938560205011899972e-06
-4.2612628759831556706e-06
2.4406127173375280686e-06
-4.7504064276841137776e-06
1.9023267455198396969e-06
-5.0656150458232055783e-06
1.2270169762890309621e-06
-5.1875175193804791659e-06
4.635710447740370142e-07
-5.107227152807219241e-06
-3.3800103708966059358e-07
-4.8266566587023673396e-06
-1.1254816686846129562e-06
-4.359469484163810442e-06
-1.843420721513152988e-06
-3.7325196143610821483e-06
-2.4330513753263481927e-06
-2.9874196597405603032e-06
-2.8340217008107340265e-06
-2.1816565997180404306e-06
-2.9887638220095243864e-06
-1.3885238827540496361e-06
-2.8499658450709804194e-06
-6.9519856065589275863e-07
-2.3906122203248382968e-06
-1.9867636174780299547e-07
-1.6162942773466020501e-06
-5.8424064198056408322e-07
-2.2915010335643425702e-07
8.1106496689575864933e-07
-7.870179224779919634e-07
2.141384417402217046e-06
-1.5515178420632479694e-06
3.0901218671386454052e-06
-2.4148501853657322936e-06
3.6323465790222253198e-06
-3.2868980665865692608e-06
3.7884521326082461246e-06
-4.0956717966505960444e-06
3.6026284133549886236e-06
-4.7859078603199145221e-06
3.1308470669469709813e-06
-5.3168111694978307307e-06
2.4332291351882015854e-06
-5.6597199807615159183e-06
1.5699262873988239353e-06
-5.7962571330224736096e-06
6.0010979775269734914e-07
-5.7173399973197299676e-06
-4.169164635977456298e-07
-5.423267214380001951e-06
-1.4195536340873287556e-06
-4.9249603858785502393e-06
-2.3417280335841493938e-06
-4.2462700312659223197e-06
-3.111743139067445946e-06
-3.4270141445873432641e-06
-3.653279035737327464e-06
-2.5260870300363351819e-06
-3.8896915876034612953e-06
-1.62361143633968455e-06
-3.7524410288449662132e-06
-8.2087668692453865722e-07
-3.1933459878303638074e-06
-2.3682725996552985908e-07
-2.200342965184105394e-06
-8.2106807893045361807e-07
-2.6348923026235077196e-07
1.0745532141837633305e-06
-8.9635615266983088037e-07
2.7742510612127866282e-06
-1.7506579878358023337e-06
3.9444245582909780745e-06
-2.6999658504593120693e-06
4.5816559825432609878e-06
-3.643957161521267992e-06
4.7324445692672964875e-06
-4.5074241707103561777e-06
4.4660952390652720314e-06
-5.236498782995578592e-06
3.8599202224738606921e-06
-5.7939941810496665075e-06
2.9907227413095450398e-06
-6.15506206987905174e-06
1.9309931968727642279e-06
-6.3038750872229956681e-06
7.4892323008770171462e-07
-6.2317254072901582623e-06
-4.8906463746965081031e-07
-5.9367618513271133858e-06
-1.7145155152126305873e-06
-5.4254948037903078637e-06
-2.8529941810565331015e-06
-4.7160823326954076014e-06
-3.8211559062903110905e-06
-3.8431715991242401448e-06
-4.526190961830397748e-06
-2.8636237906791130059e-06
-4.8692406947267198852e-06
-1.8617973071260742704e-06
-4.7542681587116705804e-06
-9.5237729896243737576e-07
-4.1027657727587643383e-06
-2.7819365754851239376e-07
-2.8745259256813978647e-06
-1.0992613592657857214e-06
-2.9974678226469900764e-07
1.3742994681513401114e-06
-1.0061373046502343671e-06
3.4806406208513423765e-06
-1.9408323910574495731e-06
4.8791194630855160114e-06
-2.9578399999006444331e-06
5.5986646027246320196e-06
-3.948611400337687937e-06
5.7232176429784271813e-06
-4.8383468806029228447e-06
5.3558318787904344696e-06
-5.5787050238303122611e-06
4.6002781649452716305e-06
-6.1399508241968385954e-06
3.5519670831285120126e-06
-6.5041393023304273034e-06
2.2951798838725528205e-06
-6.6600771385908044808e-06
9.0486002013690946624e-07
-6.6003546639060566579e-06
-5.4878686070548211918e-07
-6.3205997174978010756e-06
-1.9942691516400072097e-06
-5.8211238376919268326e-06
-3.352468500503067016e-06
-5.1111461372677031095e-06
-4.5311326619762041094e-06
-4.215623118721797571e-06
-5.4217140841963405026e-06
-3.1842058452683801315e-06
-5.9006589095356653477e-06
-2.1008669395438261798e-06
-5.8376081668350228643e-06
-1.0913859106243231773e-06
-5.1122473822100117415e-06
-3.2437267028763236081e-07
-3.6415390090521146957e-06
-1.4236334547092823407e-06
-3.392409978778935099e-07
1.7135407845633454287e-06
-1.1167458568559227104e-06
4.2581444150750113447e-06
-2.1166489987143768503e-06
5.8790214372510534742e-06
-3.1726840784579371145e-06
6.6546994683056384735e-06
-4.17182818198974452e-06
6.7223628779922246827e-06
-5.0454074570267707473e-06
6.229412909494841887e-06
-5.7564875383444994908e-06
5.3113594429195708666e-06
-6.2878530932914017436e-06
4.0833325051746353283e-06
-6.6323421295498089238e-06
2.6396675787691900115e-06
-6.7860115196137159017e-06
1.0585277015337954135e-06
-6.7440833965101694861e-06
-5.9071608460648376344e-07
-6.4996063172211106837e-06
-2.2387461872368750845e-06
-6.045001626628000717e-06
-3.8070721487529154303e-06
-5.3769300398627881262e-06
-5.1992028789096208271e-06
-4.5049830350582695555e-06
-6.2936601658914757137e-06
-3.4642902724990522126e-06
-6.9413516269421172766e-06
-2.3308993581352715796e-06
-6.9709997744379050951e-06
-1.2365655816638173108e-06
-6.2065819900053838471e-06
-3.7650818340660837351e-07
-4.5015967871051723893e-06
-1.8001412978813150352e-06
-3.8380163142207346969e-07
2.0973434454673404382e-06
-1.2273153548675490273e-06
5.1016576581017991047e-06
-2.2669234822459064802e-06
6.9186281340651562243e-06
-3.3168965225257332781e-06
7.7046711830767592642e-06
-4.2667419773578666234e-06
7.6722081744169631946e-06
-5.0626500180761393612e-06
7.0253221220014364489e-06
-5.6870268420711817865e-06
5.9357380094506248129e-06
-6.1413482463763670877e-06
4.5376551330584456601e-06
-6.4336135286054020379e-06
2.9319328767028714073e-06
-6.5700265823205078027e-06
1.1949396424920494892e-06
-6.550115114483642852e-06
-6.1062909173485528585e-07
-6.3647857564559256777e-06
-2.4240766581348688593e-06
-5.997403830355687855e-06
-4.1744542372999448739e-06
-5.4286403544818148442e-06
-5.767965612270510841e-06
-4.6463279649258359114e-06
-7.0759714353154667569e-06
-3.6615469851330710825e-06
-7.9261317754788039846e-06
-2.5309736733998724962e-06
-8.1015729441146787018e-06
-1.3824453653009686098e-06
-7.3551107328601226411e-06
-4.3540803263485576053e-07
-5.4486346518934446718e-06
-2.2355494024416576744e-06
-4.3641670176321150336e-07
2.5337612793737211331e-06
-1.3349373188579367759e-06
6.0001786889148010266e-06
-2.3709599140866839777e-06
7.9546499511854727634e-06
-3.3446570583687661786e-06
8.6783667715283931821e-06
-4.1608147935429496236e-06
8.4883646123803312101e-06
-4.7932947594553865789e-06
7.6578019188732225154e-06
-5.2537286214927077848e-06
6.3961729311044713671e-06
-5.5688577673152808679e-06
4.8527858959452816929e-06
-5.7658908747126840627e-06
3.1289672148708268419e-06
-5.8637068551799693633e-06
1.2927558382580812314e-06
-5.8678621183682841907e-06
-6.0647463437347972795e-07
-5.768224833922096875e-06
-2.5237152346870551766e-06
-5.5391319027523667852e-06
-4.4035482265069217814e-06
-5.1431039752023617392e-06
-6.1639938604867880819e-06
-4.5402915744451756346e-06
-7.678783375556977111e-06
-3.7066534674832097356e-06
-8.7597690291527926338e-06
-2.6634247254864760061e-06
-9.144800989760520579e-06
-1.5170859157271211325e-06
-8.5014493550519815965e-06
-5.0158067235080205472e-07
-6.4641401617269422775e-06
-2.7371304028392999351e-06
-5.0182459941315798518e-07
3.0355864283927620829e-06
-1.4314450833573131469e-06
6.9298001823751857723e-06
-2.3897725177735745601e-06
8.9129777212817731466e-06
-3.1792864711524430004e-06
9.4678799709791738903e-06
-3.74221290805836201e-06
9.0512895724625290413e-06
-4.097538671825051105e-06
8.0131264144099163897e-06
-4.296782312412991548e-06
6.5954162813537367045e-06
-4.3971754518919333238e-06
4.9531798465405902087e-06
-4.4472255755908873072e-06
3.1790187304264306306e-06
-4.4794637807583540618e-06
1.3249952338055115894e-06
-4.5066459690082538798e-06
-5.7929203860814850907e-07
-4.5194455738765913484e-06
-2.5109161067789981459e-06
-4.4852527938960603049e-06
-4.4377420015983975275e-06
-4.3492498202510992053e-06
-6.2999977632681217855e-06
-4.0407893414423685742e-06
-7.9872442509953007215e-06
-3.4902882686421238903e-06
-9.3102698587404975528e-06
-2.6633446337485319054e-06
-9.9717440157061779994e-06
-1.6168802830876491472e-06
-9.5479131880013642269e-06
-5.7479885772408004834e-07
-7.5062214672062384056e-06
-3.3119295494723622594e-06
-5.8572011336525571394e-07
3.6213062132368688924e-06
-1.4933939681984641622e-06
7.8374749453612510683e-06
-2.2461855122681026009e-06
9.6657703861714578905e-06
-2.6888600805804664147e-06
9.9105550075105528992e-06
-2.8366982730093244221e-06
9.1991271489452637329e-06
-2.7743385331073662685e-06
7.950765353844262476e-06
-2.6011368182230529003e-06
6.4222133399259741967e-06
-2.4052922756243692746e-06
4.7573348454510851159e-06
-2.2541572745094862621e-06
3.0278842162045611825e-06
-2.1916412954621440237e-06
1.2624803409323067472e-06
-2.2373986827053908741e-06
-5.3353357894788545061e-07
-2.3853520723479703004e-06
-2.3629621847592558882e-06
-2.6009275489112231519e-06
-4.2221667129509269896e-06
-2.817948390969639842e-06
-6.0829776123008785226e-06
-2.9384317827002692301e-06
-7.8667616016896903822e-06
-2.8422973046876376998e-06
-9.4064047218855279762e-06
-2.4188387505409404305e-06
-1.0395202466750309687e-05
-1.6344690638484825248e-06
-1.033228249335929197e-05
-6.5155857701500573671e-07
-8.489131649372287598e-06
-3.9634881985507442153e-06
-6.876332944159080614e-07
4.3089385908925016333e-06
-1.4533293922899521059e-06
8.6031712737497473368e-06
-1.7807240999397428405e-06
9.9931661412384679245e-06
-1.640541799537632894e-06
9.7703738901871278169e-06
-1.1702126080511953385e-06
8.7287984962924176045e-06
-5.36099918022633736e-07
7.3166522678654088361e-06
1.16925388633324974e-07
5.7691869765526415065e-06
6.793109404790388295e-07
4.1949481851019853544e-06
1.0750381007657158916e-06
2.6321564647048097799e-06
1.2561204127620595151e-06
1.0813981909523633281e-06
1.1987875239384104555e-06
-4.761999495683516062e-07
9.0329951160036776307e-07
-2.0674732972022830274e-06
3.9797409973856662211e-07
-3.7168407443658429805e-06
-2.5279251704100475985e-07
-5.4322109806267458005e-06
-9.3858729427291885304e-07
-7.1809672497505622863e-06
-1.4977979192794404575e-06
-8.8471946330060419764e-06
-1.7325711178505156136e-06
-1.0160429584427638889e-05
-1.4695431171718768484e-06
-1.059531047653982882e-05
-7.1553746024704659347e-07
-9.2431370958376012938e-06
-4.6790255495227453688e-06
-7.7368677495133498181e-07
5.0826245030467239217e-06
-1.1238746500032099351e-06
8.9533586840883550202e-06
-6.5875879923038924434e-07
9.528050570539086853e-06
3.7897802741044401483e-07
8.7326379699378679409e-06
1.6854049847817852231e-06
7.422372565999841692e-06
3.0205806010179814201e-06
5.9814772530577293167e-06
4.2193518517677876524e-06
4.5704156188528478406e-06
5.1765532850779867136e-06
3.2377460484080798297e-06
5.8275725089336908986e-06
1.9811363475483879774e-06
6.133266332535210106e-06
7.7570374212806149453e-07
6.0714466359836719451e-06
-4.1438034117279212885e-07
5.6347228471830378889e-06
-1.6307490926706054104e-06
4.8347304617407048152e-06
-2.9168477269858937084e-06
3.7137128663457177614e-06
-4.3111928985618519665e-06
2.3643164276665716719e-06
-5.8315706954427994893e-06
9.553881239462289769e-07
-7.4382665601400317342e-06
-2.4812575692037456171e-07
-8.956916054802599038e-06
-8.9975447338506580327e-07
-9.9436819823659210356e-06
-7.0875170686693529484e-07
-9.4341398576433444683e-06
-5.3877771131504065722e-06
-6.8892759253160932811e-07
5.7715517847201748826e-06
-1.6458944737880586517e-08
8.2808894062087009711e-06
1.7979879447216321297e-06
7.7136032261039476593e-06
4.076252283216779513e-06
6.4543736691488978833e-06
6.3684864165186763388e-06
5.1301389920299961971e-06
8.429368210502393677e-06
3.9205962518188287096e-06
1.0135170371501452986e-05
2.8646140735470682773e-06
1.142870193724343736e-05
1.9442146311875997793e-06
1.2284195842872133083e-05
1.1256420986206615924e-06
1.2687132475041606474e-05
3.7276650035507391337e-07
1.26242232611170775e-05
-3.5147167178177581832e-07
1.2080441002450778936e-05
-1.086967052525423694e-06
1.1041461446147150149e-05
-1.8778680043763039478e-06
9.5044193990570186248e-06
-2.7741504584897503369e-06
7.5009706699948360253e-06
-3.82812160756761791e-06
5.1392691532115899807e-06
-5.0765649137621711632e-06
2.6687497283110532996e-06
-6.4863967428905353895e-06
5.6463606664406164722e-07
-7.8395685208748923096e-06
-4.458620471143045659e-07
-8.4236418549195191791e-06
-5.8336390883806369707e-06
1.8387731266147949403e-07
5.5876747015128762385e-06
3.0471854031663969867e-06
5.4175810928554245428e-06
6.8795805997783663032e-06
3.8812075043089284892e-06
1.056621869291784849e-05
2.7677350604675582762e-06
1.3739963155487558961e-05
1.9563943364680896931e-06
1.6314322878723676151e-05
1.3462367551374968973e-06
1.8300492229471522097e-05
8.784452278180595286e-07
1.9736603972211187827e-05
5.0810339830255391678e-07
2.0657885184854183247e-05
2.0436115255292900768e-07
2.1084819409556056501e-05
-5.4167789557063070889e-08
2.1017989853952190939e-05
-2.8464244733556456495e-07
2.0437553059884314968e-05
-5.0653064186980205907e-07
1.9301270473929047871e-05
-7.4158564615262193712e-07
1.7547934194820496572e-05
-1.0208141598405190976e-06
1.5108841151286940844e-05
-1.3890283630650112963e-06
1.1941763993783253796e-05
-1.9094875392900332933e-06
8.1146279534156816928e-06
-2.6592606106761992594e-06
3.9936393434092222281e-06
-3.7185799579092558742e-06
6.6741927570718346068e-07
-5.0974218696135755499e-06
-5.1662198159203921065e-06
4.1259295350010289879e-06
1.4617455144939530362e-06
1.1133584345405689685e-05
-1.5900735021460706678e-06
1.7009018400907458533e-05
-1.9942266233831511347e-06
2.1485470428975737313e-05
-1.7087172861089573079e-06
2.482683302527389222e-05
-1.3849686401612674861e-06
2.7283692779665339655e-05
-1.1106232467487236009e-06
2.9053915345300913387e-05
-8.917773449623052996e-07
3.0273813744380560504e-05
-7.1179479078485930755e-07
3.1028383088552269451e-05
-5.5020789123491820956e-07
3.136324856172264798e-05
-3.8903303698020027608e-07
3.12914265338189347e-05
-2.1282035376411949194e-07
3.0792654612860804076e-05
-7.7588399729334183331e-09
2.9811635379466152576e-05
2.3943339414272351359e-07
2.8247813534408048122e-05
5.430075313357683406e-07
2.5941134524756193736e-05
9.1765061121258516041e-07
2.2658172588318283057e-05
1.3734744688479625504e-06
1.8106740697916822038e-05
1.8921713764133126886e-06
1.2023293239087780011e-05
2.3648675463925775546e-06
4.6827301022992052864e-06
2.2431412531504878967e-06
-4.8348972898344285498e-07
2.1434814829363475877e-05
3.1374939346053247328e-05
3.5983777091069190865e-05
3.8734330011364737469e-05
4.0500395882429629816e-05
4.1672642616103616883e-05
4.2462583735023969132e-05
4.2981222909098691426e-05
4.328772747693372837e-05
4.3411862006142364024e-05
4.3362665386694509745e-05
4.3130324731371257334e-05
4.2682786229343988311e-05
4.1955640017294676045e-05
4.0827581850279905671e-05
3.9064691236754030951e-05
3.6203623837785837438e-05
3.1217026670870010247e-05
2.0812014952815549568e-05
)
;

boundaryField
{
    movingWall
    {
        type            calculated;
        value           nonuniform List<scalar> 
20
(
-1.9973069208182530032e-05
-1.1530197808288269708e-05
-6.6030641820808859532e-06
-4.4592701163843558482e-06
-3.1510345595804658426e-06
-2.2828701414015425218e-06
-1.6817186565998918632e-06
-1.2304340973277655659e-06
-8.5671247584713493989e-07
-5.1316747429895972698e-07
-1.6362359075635135182e-07
2.2458194353116043541e-07
6.8697193775725878583e-07
1.2701537095346953011e-06
2.0457087132433761859e-06
3.1363650396595994548e-06
4.7532387778461198741e-06
7.3514647417653736163e-06
1.264815299117126723e-05
2.0328525222868068658e-05
)
;
    }
    fixedWalls
    {
        type            calculated;
        value           uniform 0;
    }
    frontAndBack
    {
        type            empty;
    }
}


// ************************************************************************* //
