/*--------------------------------*- C++ -*----------------------------------*\
| =========                 |                                                 |
| \\      /  F ield         | OpenFOAM: The Open Source CFD Toolbox           |
|  \\    /   O peration     | Version:  2412                                  |
|   \\  /    A nd           | Website:  www.openfoam.com                      |
|    \\/     M anipulation  |                                                 |
\*---------------------------------------------------------------------------*/
FoamFile
{
    version     2.0;
    format      ascii;
    arch        "LSB;label=32;scalar=64";
    class       volVectorField;
    location    "0.9";
    object      U;
}
// * * * * * * * * * * * * * * * * * * * * * * * * * * * * * * * * * * * * * //

dimensions      [0 1 -1 0 0 0 0];

internalField   nonuniform List<vector> 
400
(
(0.00019468999528940927153 -0.00019233668405368146591 0)
(4.8677190086947059317e-05 0.00012522454338341856188 0)
(-0.0011183366197623544405 0.00050131225268129663616 0)
(-0.0030889924991938377818 0.00075824196756071491829 0)
(-0.0055239553187368343329 0.00088080239191459482658 0)
(-0.0080963510294004854134 0.00088522275806114756203 0)
(-0.010520975276705037474 0.00079374998557758228053 0)
(-0.012565730675639492919 0.00062874460390523732346 0)
(-0.014053839826244904354 0.00041061620825448585416 0)
(-0.014862319963921516094 0.00015821602028628470077 0)
(-0.014921500584241196088 -0.00010982514376258319068 0)
(-0.014216994576146495255 -0.00037371868109952648476 0)
(-0.012793850987151991067 -0.00061147045704260495971 0)
(-0.010761809255290322521 -0.00079839389555231860679 0)
(-0.0082999187772569357757 -0.0009074220882878869434 0)
(-0.0056576185213510878438 -0.00091082489844860302364 0)
(-0.0031469947122564293635 -0.00078432750182588187489 0)
(-0.0011215185968245218288 -0.00051435714765662781875 0)
(6.5295555123287985638e-05 -0.00012358342362323265599 0)
(0.00020326161232143635728 0.00019953677926309005912 0)
(-0.00010068741030623486361 -6.9592804769735600208e-05 0)
(-0.0014718596521998881209 0.0014932378006802748092 0)
(-0.0049713929729091853316 0.0031211151695905514983 0)
(-0.010045430033922385024 0.0042558489157547060161 0)
(-0.016014916857789354004 0.0047961557252861157508 0)
(-0.022214095272067115039 0.0047728994824700532104 0)
(-0.028020436330889131327 0.0042654233243997474734 0)
(-0.032902900155268782756 0.0033711426218301539237 0)
(-0.03644642302249045257 0.0021912658081667283835 0)
(-0.038359852720250567359 0.00082751658779214810804 0)
(-0.038480704556684786066 -0.00061584881233154567439 0)
(-0.03678126237603188825 -0.0020286927291933033041 0)
(-0.033376297629823553637 -0.0032926484653578807181 0)
(-0.028530421942811468039 -0.00428153012129581928 0)
(-0.022661132599776586533 -0.0048662264311171076966 0)
(-0.016330331260946018279 -0.0049267230587649738296 0)
(-0.010210091407271601124 -0.0043747920676949075824 0)
(-0.0050169969028646546963 -0.0031897171190400832458 0)
(-0.0014607764572354678054 -0.001501830558242719417 0)
(-8.9738691013818309766e-05 8.9727901239393447006e-05 0)
(-0.00047998537537052404474 0.0010597469716987851021 0)
(-0.003213943028233165293 0.0050059752736242085422 0)
(-0.0089955926335910842834 0.0086874948911147692465 0)
(-0.016800844747284774533 0.011225610562644944973 0)
(-0.02566176497998212333 0.01239331632616321073 0)
(-0.03469774408835063495 0.012224447616435782024 0)
(-0.043077201383057144024 0.01087841763033801229 0)
(-0.050081738896383086457 0.0085744879150181883831 0)
(-0.055145909248317789841 0.0055561748650815121625 0)
(-0.057871967369027645101 0.0020781830765353483115 0)
(-0.058038623386348672795 -0.0015942134029961123158 0)
(-0.05560984705848166787 -0.0051815015357189169593 0)
(-0.05074426326932744008 -0.0083878326133585076607 0)
(-0.043802932557962602489 -0.010905326779835905829 0)
(-0.035350832709125271092 -0.012429363403944255345 0)
(-0.026142717409928611233 -0.012690273282471957461 0)
(-0.01707291034708361549 -0.011507044932395633918 0)
(-0.0090909079414338393732 -0.0088648477168995314102 0)
(-0.003213030592456912922 -0.005050498423332776439 0)
(-0.00046752400277766951097 -0.0010289336916490688517 0)
(-0.00080504344688681669234 0.0031137419736451269273 0)
(-0.004802793247740153558 0.010454355575593652847 0)
(-0.012741783520787496042 0.016727069129280455057 0)
(-0.023055691669488717621 0.020908086187978281584 0)
(-0.034466797235882896955 0.022710269659224287947 0)
(-0.045912660963407285475 0.022204829597972337157 0)
(-0.056413500881264913578 0.019659970898260284433 0)
(-0.065131021028203964218 0.0154474682098609227 0)
(-0.071409574039498963094 0.0099873791733263717063 0)
(-0.074789030364870515144 0.0037245095076097575922 0)
(-0.07501242489231176036 -0.0028757419734205058939 0)
(-0.072034855262695762779 -0.0093238690066925998534 0)
(-0.066034080661397515088 -0.015104680611029106321 0)
(-0.057420755113201604747 -0.019686106213804552278 0)
(-0.046843794934819313336 -0.022546234250790817 0)
(-0.035180663550897488256 -0.023226446246082201041 0)
(-0.023486994604036037088 -0.021416534127654773129 0)
(-0.01291624712597945826 -0.017069275342549393437 0)
(-0.0048208536772300089948 -0.010565645291004295558 0)
(-0.00079121344473925532634 -0.0030749472595230438639 0)
(-0.0010813504443501261582 0.0059663942207737030027 0)
(-0.0062317822472760051739 0.017655236709984790944 0)
(-0.016191154689879676959 0.026990794786270300848 0)
(-0.028838930002072396541 0.032958707777642405612 0)
(-0.04257052689474290913 0.035316623861657188421 0)
(-0.056149346739383577953 0.034241759003728382271 0)
(-0.068479300875280466054 0.030156970904787760296 0)
(-0.078645532244244156783 0.023618609600803364135 0)
(-0.085944720493762963298 0.015247018635735871267 0)
(-0.08988677538564075753 0.0056958238732095151438 0)
(-0.090195254532306229356 -0.0043533120801926240492 0)
(-0.086813293302046956601 -0.014184915536968325037 0)
(-0.07991539547289190637 -0.023045977629069191311 0)
(-0.069923421514929917642 -0.030156394572368593054 0)
(-0.05752286646477772214 -0.034744878498919336274 0)
(-0.043668437088354834785 -0.036120646722538861384 0)
(-0.0295474414239083015 -0.033786546407694781347 0)
(-0.016517368888874481986 -0.027585735666825449142 0)
(-0.0062977693064204167545 -0.017888635909325475981 0)
(-0.0010710115058326437516 -0.0059302744880844983008 0)
(-0.001332105972443117228 0.0095362510693788142546 0)
(-0.007560591755334643109 0.026496441458823533771 0)
(-0.019426388332158574246 0.039358315113927067053 0)
(-0.034257183995968859547 0.047231594063087585511 0)
(-0.050114477108902738545 0.050031716646970723905 0)
(-0.065594742941065112274 0.048130639505258560051 0)
(-0.07951145879639709424 0.042167826829062608762 0)
(-0.090909410096365328435 0.032922931825914540649 0)
(-0.099074067359970957591 0.021237258647500152631 0)
(-0.10351355682553861626 0.0079812756832300449372 0)
(-0.1039457930113178441 -0.0059463330329963277193 0)
(-0.10029824289212359301 -0.019605045894672285672 0)
(-0.09272077907663146823 -0.032000611068949504079 0)
(-0.081610664119118311866 -0.042090668451667902217 0)
(-0.067646653224039746122 -0.048823092605016243928 0)
(-0.051820243727256465327 -0.051220805211903842891 0)
(-0.0354252253194098643 -0.048520025494592437798 0)
(-0.020023698050670567933 -0.040350686021936706116 0)
(-0.0077274432006067018952 -0.02695511209210589218 0)
(-0.0013362022308996087706 -0.0095342837654090635546 0)
(-0.0015784629646213290885 0.013784959177547569803 0)
(-0.0088516670157366399846 0.036899984343687089461 0)
(-0.022536576543614413037 0.053715974667123328468 0)
(-0.039399311359950194011 0.063569165042590844439 0)
(-0.057166238856901724352 0.066655594855257793707 0)
(-0.07428440421340617994 0.063647138389927693236 0)
(-0.08951116128639760583 0.055474613841857027541 0)
(-0.10189322258489755257 0.043184412564711796567 0)
(-0.1107455824711486847 0.027855546030948873798 0)
(-0.1156058027982469899 0.010572365538792016446 0)
(-0.1162021543145579372 -0.0075642366010701851675 0)
(-0.11244393888230341805 -0.025406960806138453868 0)
(-0.10443470657175316085 -0.041732910154879281073 0)
(-0.092508537708281809997 -0.055234478272532694376 0)
(-0.077287924066837446202 -0.06455009281922408082 0)
(-0.059750637975667840462 -0.06835394086628560073 0)
(-0.0412584619831884436 -0.065516385625940989912 0)
(-0.023564991607904397369 -0.055324834121757163197 0)
(-0.0091953608394357254363 -0.037756541954890740498 0)
(-0.0016142597405995320545 -0.013883326903567071511 0)
(-0.0018383683720880530238 0.018710215364171486896 0)
(-0.010156924711184647098 0.048819872896501456672 0)
(-0.025583618120144563379 0.069945279430238524454 0)
(-0.044289697530485699906 0.081769794382703306357 0)
(-0.063669652264799439512 0.084916543325761525973 0)
(-0.082056345517442799697 0.08048284883891225483 0)
(-0.098204461765853498512 0.069777352119188382207 0)
(-0.1112211940406545585 0.054158449592895556435 0)
(-0.12050420784061148527 0.034952690154474913564 0)
(-0.12566064886326550054 0.013441780962356356457 0)
(-0.12645120059724584971 -0.0091039789162738887773 0)
(-0.12276773078527369876 -0.031368989411376370369 0)
(-0.11464526325649759819 -0.051934261304693030148 0)
(-0.1023101126096194885 -0.069240471587680735288 0)
(-0.086265622567560804046 -0.081596981840754909121 0)
(-0.067403931796548161026 -0.087263778564810781657 0)
(-0.047089108193317755213 -0.084627891246879125009 0)
(-0.027227473720729339357 -0.072472297430487567227 0)
(-0.010771582041956251005 -0.050332745877250076316 0)
(-0.0019291003715708472232 -0.019022471317135546121 0)
(-0.002128709017176349215 0.024338663286326896185 0)
(-0.01151710471092186848 0.062229141561647688397 0)
(-0.028588270721285100051 0.08789768255688421017 0)
(-0.048858246692462532768 0.10154618231717053856 0)
(-0.069402176087577274743 0.1044158859853366178 0)
(-0.088501519866987690688 0.098183553077310206647 0)
(-0.10499097605593626925 0.084633568779040005414 0)
(-0.11812099025376783523 0.065479423611480749856 0)
(-0.12744288448962631799 0.0422934614845121154 0)
(-0.13268603740428744353 0.016520639380523373385 0)
(-0.13367427482769309033 -0.010453615756853523733 0)
(-0.13028818703846309357 -0.037208010166612119629 0)
(-0.12247317843113200708 -0.06218550481110678152 0)
(-0.11029728954701144283 -0.083612979024080158474 0)
(-0.094065372017221871026 -0.099469752180233114713 0)
(-0.074482729557257001951 -0.10754188235513036098 0)
(-0.052809758582891552781 -0.10560006086103031209 0)
(-0.031025516094709711806 -0.091718400390219917417 0)
(-0.012504536458827245418 -0.064747611948755875999 0)
(-0.0023023700908672457832 -0.025035029721877016806 0)
(-0.0024703251168135703132 0.030722492178572400473 0)
(-0.012968872141361683856 0.077097037052465705598 0)
(-0.031523978024872043036 0.10734497513959888326 0)
(-0.052911436631490949001 0.12245293088087724764 0)
(-0.073923905923787988637 0.12454344851921943238 0)
(-0.092897990775852229417 0.11606397345570641788 0)
(-0.10887158392320135658 0.099381127834737292837 0)
(-0.1213508929623890592 0.076597105765796411059 0)
(-0.13013121190770654545 0.049509644569342266263 0)
(-0.13512916191351515005 0.019670176492868767654 0)
(-0.13627141470943063273 -0.011499962886447194152 0)
(-0.133440875406875048 -0.042564013331091617165 0)
(-0.12647725004996202003 -0.071916081166236878186 0)
(-0.11523850637217020187 -0.097641157755916863081 0)
(-0.099737869375389948123 -0.11741992740111975579 0)
(-0.080360106983587809015 -0.12852551437365747344 0)
(-0.058103015809132900482 -0.12797279258102076116 0)
(-0.03487444841050484079 -0.11287251892335034564 0)
(-0.014419246180353693931 -0.081046165110475243409 0)
(-0.0027568078239828455039 -0.032032348238616642488 0)
(-0.002896186634193861735 0.037944637667166394857 0)
(-0.014555295435310540431 0.093360685144844773875 0)
(-0.034303945956392821459 0.12790714304019751291 0)
(-0.056082572135438393812 0.14378599526264754238 0)
(-0.076495402881631480163 0.14437006038943203667 0)
(-0.094110403323081265325 0.1331095311377644419 0)
(-0.10834414382518256503 0.11305730175973115192 0)
(-0.11910143318861300676 0.086714599967195132857 0)
(-0.12652589825585672245 0.056055159040328352005 0)
(-0.13079249662390776687 0.022652220257845887691 0)
(-0.13197569037862463825 -0.012142497088571721497 0)
(-0.12998266747544451327 -0.046994954244673592392 0)
(-0.1245427312014849297 -0.080373661026912415761 0)
(-0.11526144218303387146 -0.11033670075612640737 0)
(-0.10176502514623503304 -0.13434738959415121196 0)
(-0.083957143477629878059 -0.1491718900787131763 0)
(-0.062352048642052161631 -0.15094577893904603805 0)
(-0.038547963834551134121 -0.13551582062180878019 0)
(-0.016513643525479529406 -0.099193747251618488714 0)
(-0.0033212988218725577293 -0.04014645005971002184 0)
(-0.0034640545019766115845 0.046138281396447558547 0)
(-0.016333893917040022414 0.11088427998957010867 0)
(-0.036738223174368596358 0.14894214451383161468 0)
(-0.057725797561490148346 0.1644413437945109191 0)
(-0.075928126167402076874 0.16251343556895492259 0)
(-0.090426658411987353992 0.1478705196141739675 0)
(-0.10125134196552390553 0.12432533991345239011 0)
(-0.10886810077405822961 0.094740886546139435609 0)
(-0.11387016128451145358 0.061174595943199384929 0)
(-0.11675210488088622052 0.025105468691040262047 0)
(-0.1177763239599942946 -0.012312460156514399429 0)
(-0.1169030692231655677 -0.049987425123419512718 0)
(-0.11376630530168291289 -0.086615490422591340236 0)
(-0.10770460054431746366 -0.12039021035849538366 0)
(-0.097884394053844137051 -0.148707416275564136 0)
(-0.083563182857873438691 -0.167912929763239821 0)
(-0.064493044284374675956 -0.17320093187742124918 0)
(-0.04159655638155612678 -0.15883884427714539678 0)
(-0.018744612912604589894 -0.11898654841886899258 0)
(-0.0040377349667445857143 -0.049527758777729365136 0)
(-0.0042736420784863088373 0.055525161361741480481 0)
(-0.018365318894058936527 0.12937920576752584556 0)
(-0.038412084108348905354 0.16936152772926804655 0)
(-0.056688922708994622657 0.1827114067700937039 0)
(-0.070308131572823562294 0.17697737659868262305 0)
(-0.07929071294524049629 0.15836509862522857306 0)
(-0.084560854654908368389 0.13143300333872512398 0)
(-0.087294002527031566707 0.099283151772948802227 0)
(-0.088595141457423406961 0.063906066978597853012 0)
(-0.089300964960378884094 0.026541075124432093879 0)
(-0.089878854472393562847 -0.011993079144915968354 0)
(-0.09037193902780776833 -0.050989715935357046717 0)
(-0.090362477758279005635 -0.08953853936133103486 0)
(-0.088960874979511786464 -0.12617086409487276999 0)
(-0.084865821029791024821 -0.15844671861815312619 0)
(-0.076569707398772279827 -0.18250389563643115709 0)
(-0.062763227189716289112 -0.19267271701675445228 0)
(-0.043182766709855234522 -0.18139736753693577742 0)
(-0.020982915677761733442 -0.1399014996890600715 0)
(-0.0049670396432314935925 -0.060345053645279117527 0)
(-0.0054759616909407478683 0.066437403888344417902 0)
(-0.020623580190056934464 0.14817826615755239072 0)
(-0.038371176182757774087 0.18727288381275838947 0)
(-0.050840673346967277246 0.19597290454735077914 0)
(-0.056498292417256561204 0.18496724943769596305 0)
(-0.056878765334679212695 0.16202271339744078738 0)
(-0.054062032748572540208 0.13224401442929725747 0)
(-0.0499928409291289233 0.098717064377331908975 0)
(-0.04625000788365115495 0.063148000769713732994 0)
(-0.043953650967597179822 0.026376349816872281945 0)
(-0.04374436809643128532 -0.011234377792748079239 0)
(-0.04576797001436413298 -0.049474835936244271339 0)
(-0.049632769743998939038 -0.087971588934044178676 0)
(-0.054341795324955602386 -0.12580634011140964801 0)
(-0.058242121206791369614 -0.16100976960451834907 0)
(-0.059078825039327133306 -0.1898905159195939385 0)
(-0.054263151855203875518 -0.20624517975115222446 0)
(-0.041736848857044220318 -0.20070254632634615399 0)
(-0.022874467694859425965 -0.16077277052639149524 0)
(-0.006177473743230285641 -0.072736212053537752098 0)
(-0.0072154949429046122758 0.079240051674984490759 0)
(-0.022642635700652436609 0.16565976551630631763 0)
(-0.03433844866262280443 0.19930290770706568515 0)
(-0.036113139702744163906 0.20024088959729766102 0)
(-0.029277428550280315545 0.18273821167249118536 0)
(-0.01746754522554224906 0.15575269762638610516 0)
(-0.0039872237171303609796 0.12442176080261828364 0)
(0.0086091081644443408216 0.091395666265296049424 0)
(0.018488661093861873119 0.057830591569023800935 0)
(0.024433709932144789811 0.024029872504716373594 0)
(0.025736623706856896071 -0.010155557086385777824 0)
(0.022153970713170188095 -0.045045629245417231901 0)
(0.013943560046277834671 -0.0808671261911563799 0)
(0.0019888361720950013464 -0.11741294837106980298 0)
(-0.012008180271707077219 -0.15351439709676892309 0)
(-0.025330592153778537512 -0.18619688532946571113 0)
(-0.034180678381165396917 -0.20942515165080680117 0)
(-0.034213861249589694324 -0.21258012896368208566 0)
(-0.023433510540144975032 -0.17913674164347398454 0)
(-0.007652951766227728686 -0.086620843995545399041 0)
(-0.0092934221846563587477 0.094508576752520806474 0)
(-0.022410011711643744448 0.17856239294539003049 0)
(-0.020891492625097474872 0.19993020551942225493 0)
(-0.0046831391812272322311 0.19002146943032768855 0)
(0.020017064827983963721 0.16590960418270475629 0)
(0.047379171287556733072 0.13649617846389014431 0)
(0.073345116493564385673 0.10602574512585763444 0)
(0.095300110979253699339 0.076171287022384071008 0)
(0.11162740336663944107 0.047301594317740731921 0)
(0.12134374901187980345 0.019140675891703089195 0)
(0.12386085669175112001 -0.00891135361622783298 0)
(0.1188795707260747736 -0.037602288241416252645 0)
(0.1064079927974012213 -0.067676086356959042067 0)
(0.086913354655434857388 -0.099652523331111353411 0)
(0.061635128332108803095 -0.13339863067384186146 0)
(0.033069511043065068223 -0.16726923331983800658 0)
(0.0055323759266801119522 -0.196510799073011444 0)
(-0.014538944370885747287 -0.21078986324318607637 0)
(-0.019944999445557297368 -0.19063997839383520216 0)
(-0.0089166584116803278975 -0.10175891590534978659 0)
(-0.0097710663958886709302 0.11383113980362177808 0)
(-0.013344389100366430348 0.18130720926451113217 0)
(0.014227694380786116979 0.18142101852891223679 0)
(0.057906023421564901954 0.15923057337131052424 0)
(0.10512199465499194595 0.13090750488310157196 0)
(0.14942973316925706184 0.10272154879732037225 0)
(0.18749466245402862663 0.076799116344625842356 0)
(0.21767797246154643731 0.053386416176702360115 0)
(0.23926304510186824359 0.032016298570304288496 0)
(0.25191566675407955911 0.011973128523294275516 0)
(0.25538825805253290158 -0.0075698358296305799653 0)
(0.24940073411934951531 -0.027526256458870274058 0)
(0.23363322293742541658 -0.048884748512813283594 0)
(0.20784085944784164157 -0.072664024371475857689 0)
(0.17217564410339739056 -0.099716200471620830559 0)
(0.12783124163086806435 -0.13012708627906610648 0)
(0.077985198130560526297 -0.16173872452126639154 0)
(0.029220201330018531066 -0.1873093470484495926 0)
(-0.0052699717439185708723 -0.18853237311006726395 0)
(-0.0076556503981877483539 -0.11826334631546363274 0)
(0.0011130852875471820146 0.12888577194763350953 0)
(0.024397460823037470795 0.15478090223466772768 0)
(0.097023764454313474181 0.12867555478672654257 0)
(0.17628059891871444842 0.099900884197351963456 0)
(0.24581043092953144824 0.075142984265679987899 0)
(0.30330076096576685796 0.054895427026563678452 0)
(0.34878405603414541769 0.03851429507746680081 0)
(0.38285936199447051509 0.025033679765776861714 0)
(0.40631648124433489278 0.013576176826856809279 0)
(0.41975415931041887285 0.0034106270986432461918 0)
(0.42340192058626907601 -0.0061199443101565172143 0)
(0.4170746227291057262 -0.015682797259650781835 0)
(0.40014819292718167842 -0.026055620115816347654 0)
(0.37155883683114510063 -0.038209222702331471777 0)
(0.3299410558398711002 -0.053375474335626560407 0)
(0.27406254629450166327 -0.072961132512758083979 0)
(0.20340730156781422489 -0.097966453813116707861 0)
(0.11986305400719680925 -0.12745383091388270969 0)
(0.039292535125040550792 -0.15281250752827177375 0)
(0.0056962314530101879062 -0.12542852416628971768 0)
(0.06999744297739277088 0.060664214216246868661 0)
(0.15372346699348232724 0.031271773056164020588 0)
(0.28268734397709771589 0.0083369786523264308165 0)
(0.38995203233973940726 -0.0010218098715829297858 0)
(0.46761010880275477586 -0.0048078858027651820428 0)
(0.52447213098713785229 -0.0064318022381092184586 0)
(0.56606277231720092402 -0.0071205788303704518893 0)
(0.59554448090668887783 -0.0073002083206161125228 0)
(0.61502875711897320166 -0.0070730809840612984124 0)
(0.62580412260798423674 -0.0064234859244481903526 0)
(0.62844998037949351133 -0.0053048536599871057642 0)
(0.62290111699804351364 -0.0036780731793611895486 0)
(0.60842563417683881433 -0.001554280132247839747 0)
(0.58350188409910941356 0.00096167945146424858686 0)
(0.54561776617260604461 0.0035831029775380673214 0)
(0.49103967397326103717 0.0056299329539032201206 0)
(0.41379205465715179768 0.0055279179186510495753 0)
(0.30451375218458109906 -0.00030090867480940660869 0)
(0.16898568332978480822 -0.0188899889391587264 0)
(0.072228945603951794086 -0.045844801698311316018 0)
(0.39775364437532401141 -0.21080951828322130881 0)
(0.55408080229159240027 -0.18974770602414103848 0)
(0.67675002394355399105 -0.13632837195107450068 0)
(0.75171701588419148621 -0.098457195971637934129 0)
(0.79545131704043536836 -0.072250127356472154672 0)
(0.82360239321771866461 -0.053765411454090000776 0)
(0.84265462401901913836 -0.040387416021267844024 0)
(0.85544922786024346628 -0.030113547637458520922 0)
(0.86353831775338507626 -0.021508340179982567836 0)
(0.86777159920749469268 -0.013540988747339490969 0)
(0.86852339070423834055 -0.0054007113726931635367 0)
(0.86578842459955585031 0.0036400345372380659911 0)
(0.85916949779736351278 0.014353014958198311371 0)
(0.84775097760895123944 0.027694752042602788916 0)
(0.82980580860794983522 0.045027036105912625341 0)
(0.8021512851842658165 0.068428597570134488959 0)
(0.75797572959364922784 0.1010220650024209188 0)
(0.68093053467112962807 0.14774030184480066441 0)
(0.54924523527450097582 0.21282941206425060043 0)
(0.3676697846832573946 0.23264477906736130697 0)
)
;

boundaryField
{
    movingWall
    {
        type            fixedValue;
        value           uniform (1 0 0);
    }
    fixedWalls
    {
        type            fixedValue;
        value           uniform (0 0 0);
    }
    frontAndBack
    {
        type            empty;
    }
}


// ************************************************************************* //
