/*--------------------------------*- C++ -*----------------------------------*\
| =========                 |                                                 |
| \\      /  F ield         | OpenFOAM: The Open Source CFD Toolbox           |
|  \\    /   O peration     | Version:  2412                                  |
|   \\  /    A nd           | Website:  www.openfoam.com                      |
|    \\/     M anipulation  |                                                 |
\*---------------------------------------------------------------------------*/
FoamFile
{
    version     2.0;
    format      ascii;
    arch        "LSB;label=32;scalar=64";
    class       volScalarField;
    location    "0.3";
    object      p;
}
// * * * * * * * * * * * * * * * * * * * * * * * * * * * * * * * * * * * * * //

dimensions      [0 2 -2 0 0 0 0];

internalField   nonuniform List<scalar> 
400
(
-0.03961346842623247877
-0.044493387055429288457
-0.050166450367528959975
-0.05416924689499724721
-0.055134301547337061233
-0.052491569098779215785
-0.046248121102457670495
-0.036810185726676693252
-0.024853655822100733513
-0.01123951815595546945
0.0030467164322016595385
0.016949279285043038906
0.029403117998143438877
0.039411677203900111199
0.046148972147765941754
0.049092803597669404381
0.048194996049161338558
0.044076842825632726874
0.038231851079763991275
0.033257012386540468762
-0.034775626679789770068
-0.039790615107404989081
-0.044179035243943273747
-0.046790505502165298524
-0.047002832588307792705
-0.044418344314978409904
-0.039017440635896308287
-0.031093776059167178155
-0.021162372237616817322
-0.0098987728525845603694
0.0019100535263942780909
0.01341552428521866798
0.023764413086749650722
0.03216809391785924177
0.037986054349337827762
0.040827287508085959022
0.040676072795956079442
0.037970832010176619464
0.033436593799048425213
0.028333224284235992985
-0.02878047567749958402
-0.035662009322966717328
-0.040378199413190062061
-0.042707331966542680379
-0.042732974530788350731
-0.040262143430340041617
-0.035330364448333331784
-0.028214759611922601845
-0.01936028821957955573
-0.0093414206604999026201
0.0011700873353156012336
0.01144404072059352663
0.020739680265593415237
0.028364074425277711888
0.033739192427326120116
0.036482039876284615143
0.036514615777204960378
0.034067006591074845689
0.029160264634146663976
0.022139697101473010399
-0.023771002070101899389
-0.03313308757502259061
-0.038941257412843682806
-0.041575337939647682983
-0.041699068784320676706
-0.039306601268604864086
-0.034520599247609980165
-0.027653947286972554997
-0.019139546849307423337
-0.0095098896529796795446
0.00061768810556733105312
0.010566335941783633334
0.019636110315817221356
0.027151217397565714784
0.032514166406174209445
0.035274814062908672885
0.035245365129591400832
0.032461933320297481353
0.026377017137224068044
0.016773104165839828467
-0.021134604903250028135
-0.032994908632611112675
-0.040045732438263897945
-0.043104471547963311984
-0.043322458418857415219
-0.040857055622047722121
-0.035922133361740056501
-0.028884278477822173531
-0.020189569418551989166
-0.010357363399143169544
1.8096979426076368729e-05
0.010279056169692272343
0.019728302495325662075
0.027665239752279212337
0.033429436882219686067
0.036464871832830050846
0.036451130620682344052
0.033242128390694979101
0.025808441609083420526
0.013543024423012270038
-0.021882070950295186285
-0.036139338063508108512
-0.044391999122422143298
-0.047804405570437025208
-0.047957962199701754946
-0.045158146762559345233
-0.039711154894316126607
-0.032046984824685688376
-0.022639985782179621043
-0.012014574991466181811
-0.00076231307972206958055
0.010455189715822743243
0.020917033861522368876
0.029867226940311426137
0.036548470723925051418
0.040265526795554444639
0.04054034146679932199
0.037040114084919820159
0.028291959789798513253
0.013386876757892329434
-0.026878915571354494718
-0.043422963248626961219
-0.052731774869878809964
-0.056285356975922809508
-0.05608131657156086719
-0.052575002728609043778
-0.046170877396745871324
-0.03736986021578707351
-0.026682881925100127019
-0.014648202414897351642
-0.0018643600068110814487
0.010991481888744519813
0.023159207363403495894
0.033806022861323711814
0.042049124337725882206
0.047019179914383021912
0.048044334737233240773
0.044574571534511019111
0.034673414740680891244
0.017145048886299380647
-0.037017108160829426122
-0.055738381315455269582
-0.065856425619166977792
-0.069191012994635051059
-0.068190769370431697505
-0.063484331695415591179
-0.05558836104184403798
-0.045081450053730549865
-0.03251239460116506913
-0.018431092200520828722
-0.0034395293834285902909
0.011771937620413929979
0.026402042203758455119
0.039531089802219893103
0.050128322658142085433
0.057112761425367648827
0.05956753607083944968
0.056662165163698638426
0.045911180151315386655
0.025777502270958090047
-0.053348604888782208411
-0.074117555285732647508
-0.084668124107369721609
-0.087242913450645331874
-0.084831154819135973222
-0.078283778411921717266
-0.068253026617084863736
-0.055401038722405482329
-0.040307653706577850627
-0.023519497380400180425
-0.0056230170478248787252
0.012697469499500974727
0.030614490130854224437
0.047126162324937194426
0.061040696247584715073
0.071027050954334328137
0.0758559952439198798
0.074315584906804288412
0.0632145760708046206
0.040546128328229069648
-0.07720886741758437033
-0.099824410991721415631
-0.11022280058757935595
-0.11123699081508407749
-0.10655686422655433199
-0.097334837576167065887
-0.084390694077556324681
-0.068472104761679350449
-0.05017155575435775644
-0.030001455503217182991
-0.0084948808537487121434
0.013709998034419660848
0.035796524728903211798
0.056706786432533927422
0.075091911309986353329
0.089338629205951120005
0.09782528612751217878
0.098815891271189823519
0.0881729065115761379
0.063192322150373236855
-0.11038191076229493526
-0.13446818487833486766
-0.14376683225766859198
-0.14201394958779792188
-0.13385811019088117435
-0.12086561213810889659
-0.10405852147050596856
-0.084260205317434652694
-0.062038705726768172966
-0.037819694744680470988
-0.012021616240999320052
0.014829435625787017877
0.041993516761294952255
0.068414204279444737478
0.092619910061311497285
0.11270427210160627318
0.12657193891274604036
0.13177956383484862313
0.12290187634044852372
0.096157473383497504837
-0.15537833632489764235
-0.18016037616294044987
-0.18676066195894966415
-0.18038919129750474735
-0.16703899899914631533
-0.14882806753140084832
-0.12700143386425699621
-0.10241986635503390335
-0.075558705546555277044
-0.046674818129234990627
-0.01598219020650390107
0.016201577159929154981
0.049314983460705376361
0.082404151024140184778
0.1139592029739558976
0.14181747590052001806
0.16335339058092107622
0.17520777570937903778
0.17021854704421535143
0.14290542088236557472
-0.21598281670990743253
-0.23975996198521712377
-0.24087108858754260887
-0.22701075079309629423
-0.20602240777323382881
-0.18069701428623077821
-0.15246948743906207913
-0.12213964582077262155
-0.089970584464308417383
-0.0559283886393103849
-0.019899794441085635194
0.018135439427127919565
0.057936563407449147289
0.098809080764767825977
0.13936484324163064819
0.17731098486725285768
0.20951042087028648453
0.23150455388733678919
0.23388209784092950372
0.20848236843641040905
-0.29845731357275501194
-0.31736899741833557442
-0.3079810474366808104
-0.28216797311166791351
-0.25010805405537833712
-0.21524917596099640837
-0.1790455374135821176
-0.14202119459235226784
-0.10402589228330880178
-0.064561217986374500044
-0.023029334583635163031
0.02108762624424970894
0.068051928579247730755
0.1176501120941920997
0.16888157243644638661
0.21960177016311605014
0.26634880612511069309
0.30352194990388636775
0.31905252082095036936
0.30064314759944749111
-0.4135889132811637614
-0.41883592774230959943
-0.38993545240638149973
-0.34536663121662747322
-0.29758454651498322807
-0.25028851596803919355
-0.20449531106194798746
-0.16003273716205118626
-0.11601758597938859052
-0.071254921005870969219
-0.02447810882366882948
0.025504762802636603281
0.079668380134804039905
0.13856406614882460504
0.20197695822343361693
0.26842774199386859602
0.33463875636501438926
0.39419436340068347846
0.43253770081701758965
0.43147509941849010451
-0.57789117196710637625
-0.54958599447491607304
-0.48585381652331216529
-0.41327188111938184534
-0.34429738680662513861
-0.28173125502274892762
-0.22525419513004768524
-0.17328325895412846624
-0.12375691124075642591
-0.074521291516361859442
-0.023468415670989735411
0.031418551416544565624
0.092018756335951981673
0.15995397447503517663
0.23631029083322041551
0.3210883069538181811
0.41217602635623806773
0.50338388983078574679
0.57984637198230659649
0.61733735331418770897
-0.81920807949571838869
-0.71114404883597315266
-0.58783823753285691094
-0.47704039375032908366
-0.38217889538874338928
-0.30290054779565150911
-0.23620154722432443184
-0.17807639769729011192
-0.12477815825932105087
-0.072993873612901133408
-0.0196975871433057656
0.038012729440810834325
0.10301621931369288332
0.17825202098700598796
0.26667040880224274213
0.37083598964192615588
0.49125992901438397809
0.62401094865267281442
0.76179846821178831551
0.88262066416581141937
-1.2384834007997969074
-0.93129078561881029064
-0.69955609212036573563
-0.53581643412698087836
-0.40998422832877901012
-0.31313447429890922669
-0.23746906255715988232
-0.17517787106152618581
-0.12024037051761055084
-0.068043495021789718313
-0.014670947636985483611
0.043664395380683417025
0.11085152983977955565
0.19135952063557981617
0.2906894179626985375
0.41552144658976564173
0.57145683345885645021
0.76170725430732155736
1.0073195065906044299
1.3177376350174236919
-2.0740309315760980802
-1.2878087224603251837
-0.84586219409048735152
-0.60491158304402103951
-0.44123967784574885664
-0.32513156583736102512
-0.24072802526205694384
-0.17502306613525658863
-0.11922658759211497703
-0.06726954804919138553
-0.014312949546157964498
0.044056551370183695548
0.11273483582892819543
0.19779263515322476064
0.30783693527233646492
0.45555524548055115197
0.65675664258402877138
0.93536903274465577063
1.3869118954786174847
2.1305317915547803409
-2.6363918708489091358
-1.2816175491104926376
-0.73069930998164134284
-0.49251126676118972547
-0.3476101702556964046
-0.25164020432710998421
-0.18527453021799172861
-0.13550067640684729242
-0.094311879076678831191
-0.056473360273922121322
-0.017998468624503001501
0.024702998155130537206
0.075524236892320170678
0.13956018937327835383
0.22461365795898724507
0.34401977916651271805
0.52059901102694750019
0.8032574212465021235
1.3752987561406597727
2.6013822064780707244
)
;

boundaryField
{
    movingWall
    {
        type            fixedValue;
        value           uniform 0;
    }
    fixedWalls
    {
        type            zeroGradient;
    }
    frontAndBack
    {
        type            empty;
    }
}


// ************************************************************************* //
