/*--------------------------------*- C++ -*----------------------------------*\
| =========                 |                                                 |
| \\      /  F ield         | OpenFOAM: The Open Source CFD Toolbox           |
|  \\    /   O peration     | Version:  2412                                  |
|   \\  /    A nd           | Website:  www.openfoam.com                      |
|    \\/     M anipulation  |                                                 |
\*---------------------------------------------------------------------------*/
FoamFile
{
    version     2.0;
    format      ascii;
    arch        "LSB;label=32;scalar=64";
    class       surfaceScalarField;
    location    "0.3";
    object      phi;
}
// * * * * * * * * * * * * * * * * * * * * * * * * * * * * * * * * * * * * * //

dimensions      [0 3 -1 0 0 0 0];

oriented        oriented;

internalField   nonuniform List<scalar> 
760
(
1.007523317101440924e-08
-1.0075300283002471388e-08
-2.3699516639159235003e-08
3.3772644042393416419e-08
-1.0346266048465969472e-07
7.9762899427599743366e-08
-2.1457785473881663059e-07
1.1111610694389411737e-07
-3.4045973647713377949e-07
1.2588256844026563457e-07
-4.6586049320121257625e-07
1.2540015565848090289e-07
-5.7791063672374946795e-07
1.1204866380131505343e-07
-6.6644642369072798223e-07
8.8534586919884343961e-08
-7.2400544255793299784e-07
5.7558731977666957304e-08
-7.4578059588110901604e-07
2.177552003513959039e-08
-7.2966279718315342321e-07
-1.611724429873917966e-08
-6.7639725130576859957e-07
-5.3264827169181015925e-08
-5.8982189704848159438e-07
-8.6574270364733847789e-08
-4.771155309434766063e-07
-1.1270518857050892629e-07
-3.4894189601546978163e-07
-1.2817319318974626354e-07
-2.1930545547585294552e-07
-1.2963719746687514853e-07
-1.0483561687599412526e-07
-1.1447092889116508103e-07
-2.3203045732583996662e-08
-8.1632243639858701258e-08
1.0715675420043677022e-08
-3.3916154535150823782e-08
1.071876501112129553e-08
-3.2178072591863128865e-08
2.2104655557417007898e-08
-1.5926087456253795842e-07
1.6085393214274499372e-07
-3.7438662081488833868e-07
2.9488730137240175969e-07
-6.5077543339867840845e-07
3.8750508017574403742e-07
-9.5552576374557488082e-07
4.3063483279096581535e-07
-1.2560957597342885203e-06
4.2597248591510163663e-07
-1.5236099873836600018e-06
3.7956426664948634375e-07
-1.7344693178757029513e-06
2.9939418242020225788e-07
-1.8710404279087293097e-06
1.941296997886860342e-07
-1.921983990315369137e-06
7.2718910532958102067e-08
-1.8825352903649798087e-06
-5.5566490130983957445e-08
-1.7548511462480533293e-06
-1.8095018568083986691e-07
-1.5483910923238017971e-06
-2.9303563987559330181e-07
-1.2801751194203526948e-06
-3.8092152472052166307e-07
-9.7464424419746830186e-07
-4.3370332895395156157e-07
-6.6271532157405954851e-07
-4.4156572211187833076e-07
-3.794842478620324792e-07
-3.9770377958579339282e-07
-1.5995550153792536885e-07
-3.0116450322878027136e-07
-3.1610393919351157205e-08
-1.6226394539321817326e-07
-2.0889441786199961732e-08
-8.0484624503509148451e-08
1.0259096669419783383e-07
-3.0484019879811726992e-07
3.8520901370587978965e-07
-6.4493074317737355693e-07
6.3497639944768285212e-07
-1.0610784741706357858e-06
8.0365137018466675464e-07
-1.5087759507005958408e-06
8.7833223155657332967e-07
-1.9444579472040512956e-06
8.6165583638622292043e-07
-2.3292473311455341655e-06
7.6435526913651279355e-07
-2.6311101287955075042e-06
6.0125787484996817046e-07
-2.8259810357633376744e-06
3.8900088353469206533e-07
-2.8983770647825232167e-06
1.4511518553782766821e-07
-2.841852732063087342e-06
-1.1209062240912854658e-07
-2.6594561376027619152e-06
-3.6334728452268436694e-07
-2.3641628355177274244e-06
-5.8833035524436746214e-07
-1.9790973807090979254e-06
-7.6598824509739405035e-07
-1.5371982945781823929e-06
-8.7560205283836659369e-07
-1.0798508362351824961e-06
-8.9891119547871235744e-07
-6.5395558578707194772e-07
-8.2359755095091216425e-07
-3.070099463174571591e-07
-6.4811112500018846741e-07
-8.0059755273160781662e-08
-3.8921692512765220918e-07
-1.0094919545869073982e-07
-1.231135420718115387e-07
2.2570518274503865965e-07
-4.3913525935631706941e-07
7.012309641550308946e-07
-8.958250438516747541e-07
1.0916659497301257806e-06
-1.4378117883277236212e-06
1.3456369011474358312e-06
-2.0093376099355465408e-06
1.4498568230181185149e-06
-2.5582055608531436249e-06
1.4105236458255123755e-06
-3.0387664058094674872e-06
1.2449169369667931978e-06
-3.4137569931742503356e-06
9.7624926575868693849e-07
-3.6552973928569532223e-06
6.3054159548499851466e-07
-3.7454470232343589472e-06
2.3526509068310982899e-07
-3.6766431618247465089e-06
-1.8089380156303918267e-07
-3.4521897338312337533e-06
-5.8780010658712742208e-07
-3.0867833766581412922e-06
-9.5373716768310254092e-07
-2.6068842190983019975e-06
-1.2458889618870273922e-06
-2.0505711830461019661e-06
-1.4319162236403205755e-06
-1.4664011916487893669e-06
-1.4830802136549884971e-06
-9.1079355726763186912e-07
-1.3792024976225593898e-06
-4.4369809270260493251e-07
-1.1152046127995863253e-06
-1.2297660826245028419e-07
-7.0993902628899861901e-07
-2.2392719951062753683e-07
-1.6071892781618220533e-07
3.8642359309952764098e-07
-5.617655192605855881e-07
1.1022773234875132255e-06
-1.1273802413374424694e-06
1.6572814061032407094e-06
-1.7852098036934095025e-06
2.0034665819622689919e-06
-2.4679508406067041799e-06
2.132596990678940541e-06
-3.1158049103687262646e-06
2.0583768249921676549e-06
-3.6782425674038430032e-06
1.8073544963055069416e-06
-4.1149218743684319347e-06
1.4129289532549344184e-06
-4.3960256068927480101e-06
9.1164548291122640769e-07
-4.5023734641785526011e-06
3.4161289539773725689e-07
-4.4256137930501519571e-06
-2.5765303959108038945e-07
-4.1686676546029716053e-06
-8.4474508208656898191e-07
-3.7464295277037978716e-06
-1.3759743100511563658e-06
-3.1865457888258799704e-06
-1.8057731030260624453e-06
-2.5299089235478884236e-06
-2.0885547165044583652e-06
-1.830359790614587326e-06
-2.1826303079139396618e-06
-1.1530641708115397942e-06
-2.0564967087642130779e-06
-5.7124566797909776012e-07
-1.6970201653386353032e-06
-1.6157959262768410138e-07
-1.1196032873808906049e-06
-3.8550811368328691989e-07
-1.9540490410024229043e-07
5.8182772690376559853e-07
-6.7640573135398452398e-07
1.5832767786772341672e-06
-1.3443860858342336666e-06
2.3252621832530139646e-06
-2.10949366231809218e-06
2.7685751270884447828e-06
-2.8928273009921203705e-06
2.9159308691272416744e-06
-3.6278431051601406838e-06
2.7933921211045542721e-06
-4.260689706725581403e-06
2.4402007479331366089e-06
-4.7497639689994332164e-06
1.9020033915007339861e-06
-5.0649292230851634576e-06
1.2268109311217008476e-06
-5.1868176315647746189e-06
4.635010600783076881e-07
-5.1065430238355345206e-06
-3.3792791459240919127e-07
-4.8260162901445923891e-06
-1.1252712560467576684e-06
-4.3588976058300579731e-06
-1.8430915559758784621e-06
-3.7320365577875669562e-06
-2.4326330327457368918e-06
-2.9870395375706593377e-06
-2.8335521601576425313e-06
-2.1813846153006286965e-06
-2.9882867209795240868e-06
-1.388354105120214492e-06
-2.8495276777998730285e-06
-6.9511406851957627827e-07
-2.3902584747239346423e-06
-1.9865105543934273914e-07
-1.616063835902233947e-06
-5.8415976802435888408e-07
-2.2912479729436670004e-07
8.1095251201356189648e-07
-7.8693714800290670786e-07
2.1410872303259393111e-06
-1.5513594915899088925e-06
3.0896839507584212818e-06
-2.4146009998744603569e-06
3.6318173362644020724e-06
-3.2865535042086114136e-06
3.7878842358077275131e-06
-4.0952357355745940269e-06
3.6020745287870644188e-06
-4.7853915662940229908e-06
3.1303564312742512203e-06
-5.3162322964742904569e-06
2.4328443099957587303e-06
-5.6591013760542385568e-06
1.5696804882405659672e-06
-5.7956250063026113213e-06
6.0002482219849075349e-07
-5.7167214097741185408e-06
-4.1683195987415316217e-07
-5.4226875259898013455e-06
-1.4193054818079084826e-06
-4.9244414752486910102e-06
-2.3413369552713243917e-06
-4.2458294616587537287e-06
-3.1112435405881575852e-06
-3.4266644593911179751e-06
-3.6527160969786853e-06
-2.5258341171919808763e-06
-3.8891173893110186777e-06
-1.6234520450356543716e-06
-3.7519105816480989754e-06
-8.207969958100367148e-07
-3.1929131535866708191e-06
-2.3680342376735560735e-07
-2.2000556293053568544e-06
-8.2096339184099098806e-07
-2.6346872172634306936e-07
1.0744220938465393692e-06
-8.9629136169755249148e-07
2.7739085937274835308e-06
-1.7505320784953735737e-06
3.9439235609604874694e-06
-2.6997685247695778526e-06
4.5810537734136722412e-06
-3.6436845537386060855e-06
4.731801041926841262e-06
-4.5070788787382030265e-06
4.465469436382405248e-06
-5.2360892254138398881e-06
3.8593669036638143842e-06
-5.7935337748826773674e-06
2.9902890392657232674e-06
-6.1545683544055277089e-06
1.9307157000099104829e-06
-6.3033685801463567317e-06
7.4882578418010098457e-07
-6.2312278804060591963e-06
-4.8897249026339743833e-07
-5.9362941630880536548e-06
-1.7142396580449839145e-06
-5.4250749552060414466e-06
-2.8525564493667799875e-06
-4.7157244056049356064e-06
-3.8205934210935751805e-06
-3.8428854693511999742e-06
-4.5255536950187454532e-06
-2.8634145946398501485e-06
-4.868587372506687272e-06
-1.8616637532584683095e-06
-4.7536613705515033218e-06
-9.5230970977797184842e-07
-4.1022670900181937764e-06
-2.7817317714126745911e-07
-2.8741911695563655337e-06
-1.0991368882816430819e-06
-2.9973430202264864137e-07
1.3741574351823367367e-06
-1.0060965974022650853e-06
3.480270835812540634e-06
-1.9407530045999397805e-06
4.8785791933871003946e-06
-2.957715271446199264e-06
5.5980156670837747296e-06
-3.948438386288675902e-06
5.7225246002588889862e-06
-4.8381264976455062109e-06
5.3551582500292954305e-06
-5.5784419120043980296e-06
4.5996826866619921023e-06
-6.1396529039428668887e-06
3.5515001663666210307e-06
-6.5038172329601602641e-06
2.2948804803938179769e-06
-6.6597437606416252118e-06
9.047532586342603469e-07
-6.6000241793409807964e-06
-5.4869114193283736648e-07
-6.3202863975661982909e-06
-1.9939771597858374997e-06
-5.8208404747711755297e-06
-3.3520026981764696714e-06
-5.1109028424489236423e-06
-4.5305312297954458505e-06
-4.2154268913244362173e-06
-5.4210290814401701926e-06
-3.1840605275787363176e-06
-5.8999527259442246632e-06
-2.1007725184101243658e-06
-5.8369485650698436449e-06
-1.0913370482468293869e-06
-5.1117020009394766031e-06
-3.2435729570078763537e-07
-3.6411701664669848875e-06
-1.4234947323241937705e-06
-3.392385326384708644e-07
1.7133964890752066252e-06
-1.1167347948699122015e-06
4.2577681025813176921e-06
-2.116625727610493947e-06
5.878470130786733927e-06
-3.1726456684063708124e-06
6.654035362613331795e-06
-4.1717726093437637434e-06
6.7216517661579505751e-06
-5.0453337969181549032e-06
6.2287201570574689946e-06
-5.7563962454726938232e-06
5.3107457909942363812e-06
-6.2877459995662767341e-06
4.0828501901284511264e-06
-6.6322222738686716867e-06
2.6393569550840840177e-06
-6.7858830492782837106e-06
1.058414676282123786e-06
-6.7439515109500556647e-06
-5.9062156718520163361e-07
-6.4994769853496865786e-06
-2.2384506559889771175e-06
-6.044880921972504005e-06
-3.8065983644972431752e-06
-5.3768233080537266411e-06
-5.1985890026973268602e-06
-4.5048943508312746384e-06
-6.2929581463723685366e-06
-3.4642223555365556674e-06
-6.9406243558067485134e-06
-2.330853408581035344e-06
-6.9703167823110907326e-06
-1.2365405652863284946e-06
-6.2060140514491610319e-06
-3.764995744722241566e-07
-4.5012103559389645774e-06
-1.7999948391320477155e-06
-3.8380942414218360771e-07
2.097205740605755694e-06
-1.2273356989125651226e-06
5.1012959945885280732e-06
-2.2669597168321108147e-06
6.9180948868607415069e-06
-3.3169492487733413829e-06
7.7040249982952423331e-06
-4.266809878690683374e-06
7.671512529108875258e-06
-5.0627302821456407334e-06
7.0246412096066648294e-06
-5.6871157582774328613e-06
5.935132181578741924e-06
-6.1414415918092798107e-06
4.5371766757176314425e-06
-6.4337067757040889687e-06
2.9316224054715579371e-06
-6.5701151715374695876e-06
1.1948233538188672899e-06
-6.5501949402091377798e-06
-6.1054107287659305774e-07
-6.3648537232573453251e-06
-2.423790752990335148e-06
-5.9974581993789340093e-06
-4.1739928818641735964e-06
-5.4286807379550899031e-06
-5.7673660190256114362e-06
-4.6463551174478828835e-06
-7.0752838230922123692e-06
-3.6615626755480536516e-06
-7.9254169168944806837e-06
-2.5309806153024514081e-06
-8.100898679727541789e-06
-1.3824469152523742347e-06
-7.3545472950013033626e-06
-4.3540733826030522641e-07
-5.4482492892994627355e-06
-2.2354024593875446176e-06
-4.3643338179882558264e-07
2.5336384970403170433e-06
-1.3349865399223624562e-06
5.99985104288101083e-06
-2.3710517734255064903e-06
7.9541613792186689562e-06
-3.3447955007571457267e-06
8.6777692150153617698e-06
-4.1609991006529922783e-06
8.4877162443559479323e-06
-4.7935203998419930187e-06
7.6571629429087602304e-06
-5.2539881210813011987e-06
6.3956008245070930423e-06
-5.5691414054881577131e-06
4.8523309759032042849e-06
-5.7661872525285645238e-06
3.1286689208621560023e-06
-5.864003501911725923e-06
1.2926399138129148457e-06
-5.8681463482610011069e-06
-6.0639789543840521284e-07
-5.7684848643810920449e-06
-2.5234515509258466816e-06
-5.5393580196392025407e-06
-4.4031187533547390723e-06
-5.1432894637365306743e-06
-6.1634337248958043408e-06
-4.5404332500572034079e-06
-7.6781396583085384088e-06
-3.7067518714910116916e-06
-8.7590983698928151139e-06
-2.6634841279984507937e-06
-9.1441666675188931735e-06
-1.5171140618186117342e-06
-8.500917492285584495e-06
-5.0158814640978011863e-07
-6.4637750365725048311e-06
-2.736990594556678295e-06
-5.0184765718174635878e-07
3.0354854000865082903e-06
-1.4315167419365728331e-06
6.9295220315275341081e-06
-2.3899089586983810701e-06
8.9125551318986934754e-06
-3.1794949050326377176e-06
9.4673560384562036485e-06
-3.7424934708984668898e-06
9.0507150725924894358e-06
-4.0978856930871663172e-06
8.0125553753989954667e-06
-4.2971854001516041771e-06
6.5949011499223722849e-06
-4.3976204178932096808e-06
4.952767011942502999e-06
-4.4476953365097467754e-06
3.1787448577780198104e-06
-4.4799393051301320467e-06
1.3248845555240052815e-06
-4.5071074314339239363e-06
-5.7922942566353290544e-07
-4.5198738148558639059e-06
-2.5106848566199341687e-06
-4.4856309943915090822e-06
-4.437361042071356589e-06
-4.3495651611718748168e-06
-6.299498851694766661e-06
-4.0410343526798608632e-06
-7.9866698885005966291e-06
-3.490461679581606582e-06
-9.3096708752214020314e-06
-2.6634517320797157795e-06
-9.9711769331966806267e-06
-1.6169326809833174725e-06
-9.5474371188036407477e-06
-5.7481385584476507419e-07
-7.5058942535010087741e-06
-3.3118041927417172734e-06
-5.8574640475410384354e-07
3.621231181866633373e-06
-1.493478704849060758e-06
7.8372559859306912308e-06
-2.2463496887258659704e-06
9.6654275593076401953e-06
-2.6891141049086534639e-06
9.9101215575680952032e-06
-2.8370437545951772402e-06
9.198645308962533445e-06
-2.7747696955903311053e-06
7.9502815599890503572e-06
-2.6016416639571771336e-06
6.4217734133028550256e-06
-2.4058536328095818683e-06
4.7569796440748088939e-06
-2.2547539666240041734e-06
3.0276461564692716729e-06
-2.1922494460462920002e-06
1.2623809676327423657e-06
-2.2379931740702414946e-06
-5.3348506990992429765e-07
-2.3859082461839928656e-06
-2.3627694682513860941e-06
-2.6014231334902297875e-06
-4.2218459397645250112e-06
-2.8183655640867065337e-06
-6.0825561121333128652e-06
-2.9387591135555163384e-06
-7.8662759619889007081e-06
-2.8425312899067172121e-06
-9.4058985081093901814e-06
-2.4189847758018576983e-06
-1.0394723773954951221e-05
-1.6345414174593268849e-06
-1.033188130832655543e-05
-6.5157981891907488961e-07
-8.4888566788565687646e-06
-3.9633835039702923475e-06
-6.876594668203642472e-07
4.3088903508720571446e-06
-1.4534162943074398765e-06
8.6030141309295338035e-06
-1.780895752362862153e-06
9.9929079927185006209e-06
-1.6408115984710144414e-06
9.7700382903746564757e-06
-1.1705843860800551674e-06
8.7284188612900891571e-06
-5.3656906495194696345e-07
7.3162667466842620288e-06
1.1637086882475915831e-07
5.7688337566553898251e-06
6.7868940168582557931e-07
4.1946614465890325938e-06
1.0743728918077707034e-06
2.631963274390986103e-06
1.2554382706093023462e-06
1.0813164038636974988e-06
1.1981167860870924824e-06
-4.7616281679702348129e-07
9.0266818527305266714e-07
-2.0673203591721733604e-06
3.9740782569647141937e-07
-3.7165853550004104351e-06
-2.5327266510658752576e-07
-5.4318755277586529859e-06
-9.3896698312216810227e-07
-7.1805815536583417628e-06
-1.4980715394637375067e-06
-8.8467939588762505487e-06
-1.7327433069021857157e-06
-1.0160052493120762197e-05
-1.4696292780618645202e-06
-1.0594996423269583945e-05
-7.1556319558823429152e-07
-9.2429239555981516094e-06
-4.6789459374315593536e-06
-7.7370961504790335679e-07
5.0826000159656048531e-06
-1.1239529093766373492e-06
8.9532586556067093192e-06
-6.5891741693301147358e-07
9.527873049230425824e-06
3.7872320429138893716e-07
8.7323979950019744951e-06
1.6850473560505939217e-06
7.4220951720450125069e-06
3.0201224934733798851e-06
5.9811921799825354699e-06
4.2188037395265320538e-06
4.570152946099565418e-06
5.1759328287485365032e-06
3.2375326503671248161e-06
5.8269031615743789609e-06
1.9809932755718827922e-06
6.1325755094351982699e-06
7.7564456029000851709e-07
6.0707636560953977741e-06
-4.1435034618773673878e-07
5.6340767808410859575e-06
-1.6306329328917079322e-06
4.8341480439911639817e-06
-2.9166562743592732096e-06
3.7132163255374615788e-06
-4.3109436699378666458e-06
2.3639213662807623448e-06
-5.8312865689276026726e-06
9.5510147953393541169e-07
-7.43797419923630767e-06
-2.4830760389331865725e-07
-8.9566440763338827518e-06
-8.9984628495597093416e-07
-9.9434591419413768297e-06
-7.087795412733959779e-07
-9.433992341396612029e-06
-5.3877246556190339826e-06
-6.8894446759793265898e-07
5.7715445910810231502e-06
-1.6519581261987562367e-08
8.2808351367861032853e-06
1.7978597120981572956e-06
7.7134943827257692554e-06
4.0760391246033818695e-06
6.4542186219043132001e-06
6.3681791149994570694e-06
5.1299551423234176394e-06
8.4289662777538996221e-06
3.9204052297016499018e-06
1.0134681699523998648e-05
2.8644378740593168798e-06
1.1428141954292294388e-05
1.944072709939674367e-06
1.2283586132579625173e-05
1.1255493608955115791e-06
1.2686498824163498927e-05
3.7273217334261976906e-07
1.2623593600580118688e-05
-3.5144473463039161446e-07
1.2079843024095260028e-05
-1.0868819242368903331e-06
1.1040920632725941878e-05
-1.8777335436424982679e-06
9.5039568907424854492e-06
-2.773979703111537083e-06
7.5006014105015744273e-06
-3.8279309503129702611e-06
5.139000181225987511e-06
-5.0763729634838663818e-06
2.6685784129289797792e-06
-6.4862228809883229466e-06
5.6454898516675154505e-07
-7.8394312246704067127e-06
-4.4588916279072829353e-07
-8.4235563162845874543e-06
-5.8336133635914371755e-06
1.8386853397744377127e-07
5.5876758177996852192e-06
3.0471482501154543196e-06
5.417556514475232104e-06
6.8794940443352759109e-06
3.8811494466897296092e-06
1.0566065612181681501e-05
2.7676473533845234348e-06
1.3739732858659074965e-05
1.9562878098639172218e-06
1.631401250215020756e-05
1.3461255174172918811e-06
1.8300106797569388583e-05
8.7834366946575073795e-07
1.9736155673191289325e-05
5.080240230703975973e-07
2.0657392137362748163e-05
2.0431309318492577265e-07
2.108430346992632928e-05
-5.4178965219194587589e-08
2.1017475234044047931e-05
-2.8461628841000904915e-07
2.043706302763717057e-05
-5.0646950571457908261e-07
1.9300827298016050911e-05
-7.4149767998033778854e-07
1.7547555615846754235e-05
-1.0207079407572396506e-06
1.5108539450960530297e-05
-1.3889146734954354188e-06
1.1941544788000748971e-05
-1.909378117766163761e-06
8.1144888621746594887e-06
-2.6591670552139218953e-06
3.9935691334689546269e-06
-3.7185124599000936745e-06
6.6739798555581958246e-07
-5.0973871138562417262e-06
-5.1662154845677827321e-06
4.1259295927306560697e-06
1.4617458169553130728e-06
1.1133571885043598465e-05
-1.5900855295938803696e-06
1.7008976702813587525e-05
-1.9942549160967591666e-06
2.1485385150148141688e-05
-1.7087607214118818187e-06
2.4826694334993515249e-05
-1.3850212396088271042e-06
2.7283496958858080735e-05
-1.110677098246532061e-06
2.9053665024067865488e-05
-8.9182437592738872909e-07
3.0273517298841603242e-05
-7.1182816681905947886e-07
3.1028053412756024609e-05
-5.5022290079932391995e-07
3.1362902057705416845e-05
-3.8902749328713712323e-07
3.1291081027748017366e-05
-2.1279516355400457556e-07
3.079232487953929918e-05
-7.7132176630371457005e-09
2.9811339430784260625e-05
2.3948776722632797975e-07
2.8247563089431069268e-05
5.4306826202298932148e-07
2.5940937563852650564e-05
9.1771070347022598556e-07
2.265803217076247213e-05
1.3735273313138525979e-06
1.810665416579755973e-05
1.8922111543931322157e-06
1.2023251657519997776e-05
2.3648898949922651983e-06
4.6827180947642107675e-06
2.2431452844262728358e-06
-4.8349776858875233727e-07
2.1434818918005559468e-05
3.1374942063286112364e-05
3.5983770804259488209e-05
3.873430735402294832e-05
4.0500351773078916014e-05
4.167257488136565948e-05
4.2462493205036071155e-05
4.29811130630977642e-05
4.3287603833170551992e-05
4.3411731392282514421e-05
4.3362534599997370414e-05
4.3130202965239506675e-05
4.2682677804343605694e-05
4.1955550271436680191e-05
4.0827513707968003513e-05
3.9064645407803397605e-05
3.6203598557797875247e-05
3.1217017199971701478e-05
2.081201372340676288e-05
)
;

boundaryField
{
    movingWall
    {
        type            calculated;
        value           nonuniform List<scalar> 
20
(
-1.9973073130909951378e-05
-1.1530208888554763596e-05
-6.6030839826841866905e-06
-4.4592975737999593079e-06
-3.1510658952938025334e-06
-2.2829003709495718505e-06
-1.6817427660956732694e-06
-1.2304479650058946477e-06
-8.5671348428209488526e-07
-5.131547954497783487e-07
-1.6359811088738960262e-07
2.2461857743506265303e-07
6.8701305119054245572e-07
1.2701957196284571147e-06
2.0457469643461313946e-06
3.1363952421652129813e-06
4.7532577888727671421e-06
7.3514712160845394217e-06
1.2648148372986780467e-05
2.0328515839726743914e-05
)
;
    }
    fixedWalls
    {
        type            calculated;
        value           uniform 0;
    }
    frontAndBack
    {
        type            empty;
    }
}


// ************************************************************************* //
