/*--------------------------------*- C++ -*----------------------------------*\
| =========                 |                                                 |
| \\      /  F ield         | OpenFOAM: The Open Source CFD Toolbox           |
|  \\    /   O peration     | Version:  2412                                  |
|   \\  /    A nd           | Website:  www.openfoam.com                      |
|    \\/     M anipulation  |                                                 |
\*---------------------------------------------------------------------------*/
FoamFile
{
    version     2.0;
    format      ascii;
    arch        "LSB;label=32;scalar=64";
    class       volVectorField;
    location    "0.3";
    object      U;
}
// * * * * * * * * * * * * * * * * * * * * * * * * * * * * * * * * * * * * * //

dimensions      [0 1 -1 0 0 0 0];

internalField   nonuniform List<vector> 
400
(
(0.0001946513566445409705 -0.00019229840878505998197 0)
(4.8631072029502902306e-05 0.00012521280268683524623 0)
(-0.0011182234770903663485 0.00050123549006865237426 0)
(-0.0030885453047568415565 0.00075811460354434888342 0)
(-0.005523061874896515594 0.00088064415543923470556 0)
(-0.0080949729428531902453 0.00088505574889981416739 0)
(-0.010519136611931753644 0.00079359629222811923534 0)
(-0.012563499207353107448 0.00062862123445079547222 0)
(-0.01405131607341235031 0.00041053328660476252725 0)
(-0.01485963492140209008 0.00015818030552505713774 0)
(-0.014918809684626416212 -0.00010980668858006865441 0)
(-0.014214459114714181331 -0.00037364119623951511226 0)
(-0.012791612695488384713 -0.00061133834654007377079 0)
(-0.010759971819096344689 -0.00079822520900283441651 0)
(-0.0082985430371504027847 -0.00090724401076142438798 0)
(-0.0056567229804743018873 -0.00091066337918664489771 0)
(-0.0031465476208047864562 -0.00078420105796706961621 0)
(-0.0011214199786647258833 -0.00051428080112600428261 0)
(6.5215334650850791034e-05 -0.00012357060085968011036 0)
(0.00020320368178349890523 0.00019950048603179919597 0)
(-0.00010067269565571592164 -6.9552617738869891226e-05 0)
(-0.0014716353785699427554 0.0014930116075720404559 0)
(-0.0049705979938273886498 0.0031205895592587165957 0)
(-0.010043742864134964574 0.0042550980403542734351 0)
(-0.016012127759971624824 0.0047952788624627245423 0)
(-0.022210127840372562852 0.0047720012294855951307 0)
(-0.028015348662518781836 0.0042646047969569743363 0)
(-0.03289686312643028826 0.0033704891603408538257 0)
(-0.036439691607359277203 0.0021908379524082392462 0)
(-0.038352744833355906229 0.00082735186994130056979 0)
(-0.038473583077016045018 -0.00061572907197751181388 0)
(-0.036774505940193741305 -0.0020282846532737423828 0)
(-0.033370254759345435724 -0.0032919787635171948725 0)
(-0.028525361089362582384 -0.0042806690741209090303 0)
(-0.022657208768706933039 -0.0048652838404543118089 0)
(-0.016327578616211646523 -0.0049258239618771883228 0)
(-0.010208429743449523933 -0.0043740490632528826118 0)
(-0.0050162351084100959692 -0.0031892167047788862189 0)
(-0.0014606052884981130056 -0.0015016237320258367556 0)
(-8.9753744195131577666e-05 8.9691870475727610446e-05 0)
(-0.00047990148408132626487 0.0010596201720926279582 0)
(-0.0032133986177475442128 0.0050051601284938126296 0)
(-0.0089940639301856282334 0.0086859835530693554895 0)
(-0.016797943035418243934 0.011223586551498264396 0)
(-0.025657258440932528831 0.012391024655215406719 0)
(-0.034691560523557124496 0.012222142220499358431 0)
(-0.043069437517392478165 0.010876337633244992711 0)
(-0.050072645701489185144 0.0085728396467218241639 0)
(-0.055135856080743714247 0.0055551142923115576569 0)
(-0.057861403147657468338 0.0020778058184475855889 0)
(-0.058028045157035690327 -0.0015938708924051676104 0)
(-0.055599768652748106368 -0.0051804579869828100078 0)
(-0.05073516971610855103 -0.0083861666130445079725 0)
(-0.043795218240216537975 -0.010903189596540513798 0)
(-0.035344742286064739778 -0.012426983492051887903 0)
(-0.026138316468751282562 -0.012687933995452328403 0)
(-0.017070096474282928783 -0.01150503450256352457 0)
(-0.0090894399823733297572 -0.0088634025279820602417 0)
(-0.0032125320850970237596 -0.0050497487255783003041 0)
(-0.00046745965041949548218 -0.0010288190047615043861 0)
(-0.0008049062812772247999 0.0031132720094661356022 0)
(-0.0048019984335588572488 0.010452621024900698304 0)
(-0.012739676611246118082 0.016724165751645054395 0)
(-0.023051846422504528727 0.020904340970105270842 0)
(-0.034460990722138894193 0.022706104345516047588 0)
(-0.045904848532438917441 0.022200683478780323249 0)
(-0.056403819917302706888 0.019656255873929159156 0)
(-0.065119780259399531741 0.015444540352796640517 0)
(-0.071397218885633967345 0.0099855130686617998848 0)
(-0.074776094612341900691 0.0037238755136041992895 0)
(-0.074999485544371621848 -0.0028750884301972892861 0)
(-0.072022496538155733603 -0.0093219836307569473727 0)
(-0.066022856393426809785 -0.015101721907132312217 0)
(-0.05741113546796757644 -0.019682334014585592397 0)
(-0.046836100322323499789 -0.022542011733519450728 0)
(-0.035175012145522197016 -0.02322222419881631722 0)
(-0.023483294608639695977 -0.021412796943359117818 0)
(-0.012914232193486434655 -0.017066452580770677394 0)
(-0.0048200952608887549788 -0.010564013814850706577 0)
(-0.00079108392421834089828 -0.0030745218486468882044 0)
(-0.0010811781464162839583 0.0059654473410722412205 0)
(-0.0062308361633762604503 0.017652345870561095276 0)
(-0.016188713207589685433 0.026986239262192041055 0)
(-0.028834551792431759032 0.032952985800692120855 0)
(-0.042564004276108305391 0.03531034298419054307 0)
(-0.056140662898811574677 0.034235552297005818201 0)
(-0.06846862341901770177 0.030151433993717113857 0)
(-0.078633200410595405216 0.02361425776652005537 0)
(-0.085931214898371327537 0.015244252824166356491 0)
(-0.089872669629885798548 0.0056948985010661749839 0)
(-0.090181160879497970773 -0.0043523130500203888876 0)
(-0.086799817530844619595 -0.014182083522901530945 0)
(-0.079903102996591160445 -0.023041565021771862054 0)
(-0.069912801198950047521 -0.030150793394035341199 0)
(-0.057514278624854905941 -0.034738603225049818901 0)
(-0.043662053449238187597 -0.036114313961110484918 0)
(-0.029543210623484816163 -0.033780826609706882113 0)
(-0.016515030303383408661 -0.027581260544136957519 0)
(-0.0062968627388273719706 -0.017885876070792179615 0)
(-0.0010708456766735422426 -0.0059294136627582655005 0)
(-0.0013319164710741660494 0.009534760452715314652 0)
(-0.0075595994664877270985 0.026492276982890073517 0)
(-0.019423884679060230557 0.039351995745462643728 0)
(-0.034252744141140496759 0.047223813122550278853 0)
(-0.0501079094621912427 0.05002326767011949088 0)
(-0.065586044938815632466 0.048122339622141026283 0)
(-0.079500805472677169017 0.042160446015393746033 0)
(-0.090897137417820503269 0.032917137155376252622 0)
(-0.099060645938254851539 0.021233571573196167309 0)
(-0.1034995505390227527 0.0079800342077885940556 0)
(-0.10393180481823212358 -0.0059450074629651917732 0)
(-0.10028486198379991945 -0.019601265843591907795 0)
(-0.092708542641568345011 -0.03199471426470136548 0)
(-0.081600031881942217127 -0.042083184950038571293 0)
(-0.067637977933981227596 -0.048814702532847191463 0)
(-0.05181372491168469846 -0.051212297349137070324 0)
(-0.035420861571649558952 -0.048512246637283908124 0)
(-0.020021269199192951588 -0.040344458048925301019 0)
(-0.0077264965359320810639 -0.026951112541199868933 0)
(-0.0013360272628209508144 -0.0095329195977357228386 0)
(-0.001578279296866361061 0.013782938031284747149 0)
(-0.0088507394201272331785 0.036894575918322104757 0)
(-0.02253428225959546588 0.053707949806919057234 0)
(-0.039395279819973441637 0.063559421203212021489 0)
(-0.057160301735356223995 0.066645106265097078801 0)
(-0.074276559108122419683 0.063636888204081767939 0)
(-0.089501563278712045757 0.055465524274090793888 0)
(-0.10188216750061707128 0.043177281971521354331 0)
(-0.11073348431084086008 0.02785099852989296465 0)
(-0.11559316249294389334 0.010570810131707179813 0)
(-0.11618951522430137624 -0.0075626416794700983964 0)
(-0.11243183509254518759 -0.025402333752547950202 0)
(-0.10442361890899902466 -0.041725648205941115454 0)
(-0.092498867711673024572 -0.055225227911562806138 0)
(-0.077279979166173323746 -0.06453969292853486972 0)
(-0.05974460830063364758 -0.068343355430263333372 0)
(-0.041254381429830414008 -0.065506635553204059508 0)
(-0.023562700816191176068 -0.055316917777526605771 0)
(-0.0091944640262169672479 -0.037751331058048315237 0)
(-0.0016140935378163791432 -0.013881459272415356404 0)
(-0.0018382190334993459696 0.018707750985845521957 0)
(-0.010156177220345098677 0.048813404393237773415 0)
(-0.025581787563422053733 0.069935791235009356348 0)
(-0.044286499758699617024 0.081758367552194496919 0)
(-0.063664953923231057398 0.084904314819461673691 0)
(-0.082050137213819041015 0.080470945189047154988 0)
(-0.098196856072075247579 0.069766821294289321775 0)
(-0.11121241399629389068 0.054150195359713056142 0)
(-0.12049456971852316733 0.034947416112105049446 0)
(-0.12565054128442260106 0.013439947513724728387 0)
(-0.12644105500280719556 -0.0091021879965562518811 0)
(-0.12275798157570977365 -0.031363692395889181119 0)
(-0.11463630589239690027 -0.05192588839361204911 0)
(-0.10230227331882504882 -0.069229745959293501056 0)
(-0.086259145327878899989 -0.081584865055450817017 0)
(-0.067398971065378995848 -0.087251389247184632514 0)
(-0.047085709697898103787 -0.084616415249365875551 0)
(-0.027225539827427477219 -0.072462897834748282722 0)
(-0.010770813354706750692 -0.050326467845369378395 0)
(-0.0019289548078643503713 -0.019020158421969475537 0)
(-0.0021286206248720715255 0.024335895272483226703 0)
(-0.011516641502093877963 0.062221926944336022891 0)
(-0.02858712036738750642 0.087887143037354106823 0)
(-0.048856229803835339587 0.10153352770911822089 0)
(-0.069399201901376258994 0.10440237596361728878 0)
(-0.088497569824542307582 0.098170425588418513962 0)
(-0.10498610684773765356 0.084621968566946342838 0)
(-0.11811533001058788228 0.065470333751999884586 0)
(-0.12743662297369906522 0.042287643071214756074 0)
(-0.13267941465266563927 0.016518585921395476102 0)
(-0.13366756682667751965 -0.010451708811135353855 0)
(-0.1302816839583281483 -0.037202264656070356541 0)
(-0.12246715562221135998 -0.062176367887755851216 0)
(-0.11029197968818153786 -0.083601211534034880479 0)
(-0.094060948949852798973 -0.099456385551397727407 0)
(-0.074479304431016593591 -0.10752814085957634882 0)
(-0.052807375439972506492 -0.10558726150354512396 0)
(-0.031024131764839400077 -0.091707848045300924267 0)
(-0.01250396882160677639 -0.06474049999369052566 0)
(-0.0023022569174548437876 -0.025032369439742557099 0)
(-0.0024703133205611306142 0.030719588791204160277 0)
(-0.012968762402479943469 0.077089474471651431298 0)
(-0.031523656135175985582 0.10733391894852936654 0)
(-0.052910833641612635414 0.12243964128166735794 0)
(-0.073922972843800352494 0.12452924593540126708 0)
(-0.092896697639818406889 0.1160501608647281635 0)
(-0.10886992596067884831 0.09936891132797075199 0)
(-0.12134889361962575283 0.076587520408426063012 0)
(-0.13012892116627353123 0.049503489415473667101 0)
(-0.13512665345932631245 0.019667965421237883911 0)
(-0.13626878411560885973 -0.011498030894673350391 0)
(-0.13343823643814817226 -0.042558066877776253023 0)
(-0.12647472493331718413 -0.071906576442422001638 0)
(-0.11523621067865617851 -0.097628865373216994206 0)
(-0.099735898359339492103 -0.11740589817420468699 0)
(-0.080358529940048356588 -0.12851101492281402638 0)
(-0.058101875753766858701 -0.1279592114339166975 0)
(-0.034873754199854258007 -0.1128612561147782356 0)
(-0.014418940590048574119 -0.0810385237595542679 0)
(-0.002756739751174561593 -0.032029463347609060664 0)
(-0.0028962519131741797963 0.037941778364607464669 0)
(-0.014555556221092063804 0.093353205814706324839 0)
(-0.034304502820835240662 0.12789615943435622691 0)
(-0.056083465469070184484 0.14377273447992311439 0)
(-0.076496619980162702812 0.14435583122203815565 0)
(-0.094111899721229116955 0.1330956433185868093 0)
(-0.10834585306103269864 0.11304497819318162777 0)
(-0.11910327495216671556 0.086704895311865523566 0)
(-0.12652778406940504152 0.056048889626829481725 0)
(-0.13079433452466793231 0.022649910864937720933 0)
(-0.13197739241040468139 -0.012140644792362534007 0)
(-0.12998416010357424777 -0.046989071326360605518 0)
(-0.12454396443990017884 -0.080364203438839348914 0)
(-0.11526239321336315125 -0.1103244288271554574 0)
(-0.10176569652750502848 -0.13433333462688601401 0)
(-0.083957560362023106459 -0.14915730160793205794 0)
(-0.062352257750026528205 -0.15093204633361723133 0)
(-0.038548029606944693437 -0.13550437115979335756 0)
(-0.016513635966536821531 -0.099185935517826895325 0)
(-0.0033212855927034282133 -0.04014348078679955828 0)
(-0.0034641841231226660688 0.046135642532928275439 0)
(-0.016334487523102007855 0.11087730077892815617 0)
(-0.036739595602316529876 0.14893180614318007882 0)
(-0.057728094290986950443 0.16442876699046202194 0)
(-0.075931367750563291685 0.162499849922809525 0)
(-0.090430786444679694958 0.14785718141256762315 0)
(-0.10125623399457987783 0.12431343876952628824 0)
(-0.10887358263843760486 0.094731458130213191948 0)
(-0.11387601911371440788 0.061168448072267352089 0)
(-0.11675809656263880232 0.025103125193498474627 0)
(-0.11778219370447540193 -0.01231079363564721238 0)
(-0.11690856748254982445 -0.049981871305260321126 0)
(-0.11377121197238737604 -0.086606488979187323807 0)
(-0.10770874646667252805 -0.12037849064862371495 0)
(-0.097887676385045530036 -0.14869395959781625538 0)
(-0.0835655732028229431 -0.16789892127218969398 0)
(-0.064494590585434538599 -0.17318769673888928518 0)
(-0.041597379239782274196 -0.15882776243359750246 0)
(-0.018744907228138027455 -0.1189789529976621324 0)
(-0.0040377795090772161668 -0.049524856767663272272 0)
(-0.0042738150567963890253 0.055522898897803235618 0)
(-0.01836616222221518907 0.12937308533047456316 0)
(-0.038414100448067624305 0.16935232704375013935 0)
(-0.056692354554912512132 0.18270008547041122204 0)
(-0.07031303613798817187 0.17696503295773299835 0)
(-0.079297027077238887993 0.15835288419675891403 0)
(-0.084568414368865016395 0.13142202679910516827 0)
(-0.087302558772291580236 0.09927438903283164473 0)
(-0.088604377512745718937 0.063900286403599834695 0)
(-0.089310514511766650458 0.026538781532747798136 0)
(-0.089888322494562800102 -0.011991679483050299293 0)
(-0.090380928140033109375 -0.050984727131876558803 0)
(-0.090370620029948320329 -0.089530365072328421672 0)
(-0.088967865992835307165 -0.12616017804104281974 0)
(-0.084871451071532058585 -0.15843442328990450796 0)
(-0.076573884703895575554 -0.18249107439403644548 0)
(-0.062765989245464531843 -0.19266057897561261747 0)
(-0.043184279701547735597 -0.18138717880720259257 0)
(-0.020983486640939352785 -0.13989449762706315794 0)
(-0.0049671379338988947902 -0.060342371415960639747 0)
(-0.0054761534055677921207 0.066435632102441272151 0)
(-0.020624559559113284091 0.14817326376767303575 0)
(-0.038373579774689428601 0.18726518076971626625 0)
(-0.050844826677195406606 0.19596326698746135975 0)
(-0.056504298003081827872 0.18495661165389762348 0)
(-0.056886573512368886207 0.16201208584267812185 0)
(-0.054071462092880794026 0.13223438666623704707 0)
(-0.050003595674692785655 0.098709315966743579884 0)
(-0.046261699366126264599 0.063142828948748924711 0)
(-0.043965822058384604332 0.026374217321154070498 0)
(-0.043756520769141715732 -0.011233275035939318393 0)
(-0.045779597140415316525 -0.049470580434909761092 0)
(-0.049643391753448902481 -0.087964532771229661523 0)
(-0.054351000805056975951 -0.12579707725276612074 0)
(-0.058249608212442988142 -0.16099909543464877015 0)
(-0.059084437358995232914 -0.18987938014175026469 0)
(-0.054266902663867758183 -0.20623463597093322219 0)
(-0.041738928626358209883 -0.2006936951139641212 0)
(-0.022875268062896511601 -0.16076669010429431306 0)
(-0.0061776173680662023469 -0.072733887985480388805 0)
(-0.0072156803181709092479 0.079238822734355313093 0)
(-0.022643623273897520859 0.1656560076873079268 0)
(-0.034340934904639547343 0.19929689251956395069 0)
(-0.036117512682714757177 0.20023318134417503189 0)
(-0.029283845453675853149 0.18272956712799512391 0)
(-0.017475992231402330546 0.15574396551097005603 0)
(-0.0039975315871260633932 0.12441378550936296743 0)
(0.0085972473746756625929 0.091389202995131091356 0)
(0.018475670604856889861 0.057826239743907471846 0)
(0.024420098587004331753 0.024028029968923784315 0)
(0.025722951619414732155 -0.010154720518895668513 0)
(0.022140811787729180321 -0.045042180089483435657 0)
(0.013931462133843818332 -0.080861359200012986048 0)
(0.0019782782421644221765 -0.11740536183282958282 0)
(-0.012016833221214152233 -0.15350565699067772463 0)
(-0.025337131911181677568 -0.18618778235124569531 0)
(-0.034185086616021688466 -0.20941655527860691954 0)
(-0.034216328650072763695 -0.21257293825310086266 0)
(-0.023434473529812760439 -0.17913182947816999602 0)
(-0.007653129462514853508 -0.086618987264092811573 0)
(-0.0092935777708081455245 0.094507867677919243921 0)
(-0.022410882921402884571 0.17855985723599951398 0)
(-0.020893756108799309279 0.1999258847346644663 0)
(-0.0046872191380108079242 0.19001574030565723805 0)
(0.02001095261818334331 0.16590304848933085102 0)
(0.047370986682271284951 0.13648947559483182168 0)
(0.073334989206839784615 0.10601957962974878358 0)
(0.095288326931266598141 0.076166271724323192371 0)
(0.11161438086573965967 0.047298212608835328574 0)
(0.12133000577354610683 0.019139243952771594487 0)
(0.12384697043826713159 -0.0089107064749476966314 0)
(0.11886613628074660376 -0.037599621961811796611 0)
(0.10639557976872726641 -0.067671642288280486888 0)
(0.086902464593529488157 -0.09964669971716418051 0)
(0.061626150561100573322 -0.13339195388830688005 0)
(0.033062680588553335082 -0.16726232154758713389 0)
(0.0055277380920922599555 -0.19650432251257751726 0)
(-0.014541562272363839012 -0.21078450239048412973 0)
(-0.019946034530455097888 -0.19063637360292542966 0)
(-0.0089168541373100661945 -0.10175759443375741176 0)
(-0.0097711714229943881505 0.11383085262415038041 0)
(-0.01334503938496670386 0.18130573060875029845 0)
(0.01422590881019337658 0.18141823048037863941 0)
(0.057902674168486552297 0.15922669708995290661 0)
(0.10511681650920491615 0.13090295856814940234 0)
(0.14942262741485121125 0.10271684278265923174 0)
(0.18748570347620174825 0.076794769080755276303 0)
(0.21766739782134650327 0.053382889195088850665 0)
(0.2392512325180648769 0.032013950158399279156 0)
(0.25190309959452938937 0.011972185610149572998 0)
(0.25537548465807852205 -0.0075692911847837192688 0)
(0.24938832087833512352 -0.027524283694295770264 0)
(0.23362171269228682036 -0.048881545087202861455 0)
(0.20783073002092625203 -0.072659892072170467747 0)
(0.17216726586354499928 -0.09971152761670157294 0)
(0.12782484278212938311 -0.13012232033227175143 0)
(0.077980832954011397584 -0.1617343388963453088 0)
(0.029217723234144333394 -0.18730580614153943819 0)
(-0.0052709591591977907749 -0.18853008287526090703 0)
(-0.0076558398558666789641 -0.11826257851079535754 0)
(0.0011130466400549078598 0.1288857460910026731 0)
(0.024397102157961671892 0.15478019572102616475 0)
(0.097022620892918173818 0.12867399345409766265 0)
(0.17627827111590799181 0.099898577909440247624 0)
(0.24580663313084197275 0.075140205340855997784 0)
(0.3032953532703897559 0.054892523461983880328 0)
(0.34877705973133066308 0.038511621937015766415 0)
(0.38285095333759150416 0.025031548746567537644 0)
(0.40630697028605256005 0.013574822302191945356 0)
(0.41974395577909978661 0.0034101868054035233344 0)
(0.42339149613569865283 -0.0061194311409384239547 0)
(0.41706445970444927518 -0.015681389827727133801 0)
(0.40013875685780692093 -0.026053481424016144974 0)
(0.37155053851062225245 -0.038206565902622134645 0)
(0.32993420286991492762 -0.053372562587320107608 0)
(0.27405732337985849734 -0.072958258692148947322 0)
(0.20340374889200357744 -0.097963915786441119193 0)
(0.11986104744028476532 -0.12745190172718257049 0)
(0.0392917392099274565 -0.15281139046057934383 0)
(0.0056960784404578232443 -0.12542825717779459982 0)
(0.069997474014522748087 0.060664250342507018698 0)
(0.15372341145726131639 0.031271453428926794527 0)
(0.28268687456770152933 0.0083361643985776865545 0)
(0.38995082171509332092 -0.0010230657291599640473 0)
(0.46760790392217949085 -0.0048094170667822488605 0)
(0.52446879182219929838 -0.0064333882165228950534 0)
(0.56605828780787470489 -0.0071219939414726447097 0)
(0.59553896433453146209 -0.0073012593682140660561 0)
(0.61502242746126156714 -0.007073631400872689573 0)
(0.62579728104606258121 -0.0064234689750868835187 0)
(0.62844297500181978133 -0.0053042735911774229612 0)
(0.62289428268142310596 -0.0036770049499409273447 0)
(0.60841930668286303696 -0.0015528300294429448793 0)
(0.58349636426267692535 0.00096334651321622940395 0)
(0.5456132593972646827 0.0035848049238963934464 0)
(0.49103629301227802451 0.0056314864564318200743 0)
(0.4137898075911097262 0.005529153730791252358 0)
(0.30451253027524999295 -0.0003001240708631900192 0)
(0.16898523479124938351 -0.018889712481537094396 0)
(0.072228875274474108048 -0.045844896375779035924 0)
(0.39775369496672491332 -0.21080956192611230438 0)
(0.55408089721265441074 -0.18974795962667095894 0)
(0.67675001991128880263 -0.13632891090169180215 0)
(0.75171675362289258615 -0.098457992880088524013 0)
(0.79545066649408546766 -0.072251075545790452437 0)
(0.82360127932583848676 -0.053766362063687400674 0)
(0.84265303349443243519 -0.040388214355324525418 0)
(0.85544720552098640898 -0.030114062423093980458 0)
(0.86353595616122980072 -0.02150848306060126891 0)
(0.86776902455287729943 -0.013540724176719618616 0)
(0.86852074502935161515 -0.0054000612908715545438 0)
(0.86578586662724688061 0.0036409991097972457461 0)
(0.85916716796017400526 0.014354186987728723146 0)
(0.84774897636609980456 0.027695997247419005399 0)
(0.82980421792149416937 0.045028212062858438691 0)
(0.80215014362308023621 0.068429572248691311609 0)
(0.75797502762959012568 0.10102273202028790033 0)
(0.68093020947986027114 0.14774059934033345609 0)
(0.54924516475507634272 0.21282935693595678162 0)
(0.36766980227099371747 0.23264456271551273159 0)
)
;

boundaryField
{
    movingWall
    {
        type            fixedValue;
        value           uniform (1 0 0);
    }
    fixedWalls
    {
        type            fixedValue;
        value           uniform (0 0 0);
    }
    frontAndBack
    {
        type            empty;
    }
}


// ************************************************************************* //
