/*--------------------------------*- C++ -*----------------------------------*\
| =========                 |                                                 |
| \\      /  F ield         | OpenFOAM: The Open Source CFD Toolbox           |
|  \\    /   O peration     | Version:  2412                                  |
|   \\  /    A nd           | Website:  www.openfoam.com                      |
|    \\/     M anipulation  |                                                 |
\*---------------------------------------------------------------------------*/
FoamFile
{
    version     2.0;
    format      ascii;
    arch        "LSB;label=32;scalar=64";
    class       volScalarField;
    location    "0.2";
    object      p;
}
// * * * * * * * * * * * * * * * * * * * * * * * * * * * * * * * * * * * * * //

dimensions      [0 2 -2 0 0 0 0];

internalField   nonuniform List<scalar> 
400
(
-0.039618264268832449615
-0.04449618972766502395
-0.050166560199637638684
-0.054166846689907316437
-0.055129936654876351976
-0.05248597770320340139
-0.046242236643921956485
-0.036805013145689451093
-0.024850043262058821303
-0.011237994249815560013
0.003045967847154282173
0.016946379918528934466
0.029398501490842922357
0.039406129696680378127
0.046143591465551733743
0.049088787100890048098
0.048193311264749287559
0.044077953351071980093
0.038235590293323962197
0.033262413800619734794
-0.034782544855020358643
-0.039795257687400165114
-0.04418130412164576748
-0.046790751392087437388
-0.04700152202960974912
-0.044415960527675074632
-0.039014534609863725512
-0.031090968439446371729
-0.021160260609290219153
-0.0098977763265792936126
0.0019097911176874683703
0.013414110295120761085
0.023762145839357994709
0.03216546253033739089
0.037983784454017920085
0.040826292705080528822
0.040677193153214760701
0.037974454341544484903
0.033442567717328411381
0.028340947153976513845
-0.028790580539469073224
-0.035668858081772607249
-0.040382416798727706342
-0.042709502582617284161
-0.042733604935511156075
-0.040261698017607587541
-0.035329264472190098634
-0.028213400516746572205
-0.019359074992042413915
-0.0093406893395474189373
0.0011702014458925614256
0.011443637634861338406
0.020739015195069626651
0.028363476676842403618
0.033739095899823691449
0.036483073747834333933
0.036517535660100956807
0.034072387256036874847
0.029168442267997526235
0.022150838920119857861
-0.023784129353197014378
-0.033141861354885997215
-0.03894700201227487002
-0.041578843060210583793
-0.041700842630677560641
-0.039307142420365384639
-0.034520344883340249587
-0.027653212182346443432
-0.019138616680526587127
-0.0095090431987767988498
0.00061828721516719864493
0.010566738243358356902
0.019636554493551595935
0.027152008496113249486
0.032515613508375368346
0.035277322795609168671
0.035249538783878577031
0.032468490486202650214
0.026386901803686736018
0.016787393351689505056
-0.0211495094035611432
-0.033004713794659419623
-0.040052284118330200302
-0.043108709550254538378
-0.043324810205485807246
-0.040857968848858894351
-0.03592206328431726825
-0.028883537400101671339
-0.020188388680995501129
-0.010355980066863727102
1.9476554248278316452e-05
0.010280373506092276362
0.019729714954313627012
0.027667054552910963494
0.033431983779775825694
0.036468481766819313417
0.036456249564925026496
0.033249454308086512366
0.02581931500106710714
0.013559283593476734869
-0.021896908681335942176
-0.036148833048452594374
-0.044398261788613488377
-0.047808477378510384759
-0.047960178423451120533
-0.045158821035369618724
-0.039710684494302324332
-0.032045687054147564687
-0.02263808817053400077
-0.012012291136736756927
-0.00075987309292469289081
0.010457610272479576224
0.020919437330373061301
0.02986984352857524963
0.036551674032615596999
0.040269712832850426687
0.040545917879379007875
0.03704769416476772631
0.028302981239566173816
0.01340356195698629016
-0.026891708596747481569
-0.043430735981146419145
-0.052736574762374435754
-0.056288228868600548305
-0.056082533573885047506
-0.052574731285830303418
-0.046169391884086675992
-0.037367453791467566959
-0.026679809305969002381
-0.014644687531941614003
-0.001860639421514891003
0.010995160858917763652
0.023162688015751779075
0.033809372734989504017
0.042052667912345784162
0.047023388106990776647
0.048049689827023824018
0.044581663382099415149
0.034683587178934986717
0.017160515595689651569
-0.037025901606587904857
-0.055743111527920490011
-0.065858718753249501088
-0.069191744170457925023
-0.068190152240910489878
-0.063482418735090390127
-0.055585284278335117536
-0.045077444403952990348
-0.032507747950884437194
-0.018426078538991010058
-0.0034344060086704724169
0.011776898316437170791
0.026406589208619955789
0.03953512580108080321
0.050132027725507552485
0.057116575464031392462
0.059572005057133399497
0.056667912418198462809
0.045919388648488393412
0.025790107633818806082
-0.053351686896060061815
-0.074118123420818457503
-0.084667093178708241474
-0.087240797405269299158
-0.084828062192729189461
-0.078279678708188346614
-0.068247922867134200309
-0.055395083778852299838
-0.04030115041613418353
-0.023512793629698398173
-0.0056164337023084619227
0.012703632204231719502
0.030619947103474421529
0.047130719790505044842
0.061044380891584100468
0.071030169638384738073
0.075859051503364305358
0.074319198935630312319
0.063219731241627982743
0.040554335622237237813
-0.077205080255789412802
-0.099820055174974275936
-0.11021793027923380837
-0.111231630178764751
-0.1065509544445348844
-0.097328272616627242719
-0.084383370282181180411
-0.068464081293593839761
-0.050163115497940072296
-0.02999301034262186888
-0.0084868511982470647148
0.013717237217583586745
0.035802653249209365205
0.056711571706292575323
0.07509528379333803294
0.089340744644054254087
0.097826514497054997688
0.098816752937506163734
0.088174113483106220102
0.063194868230392178821
-0.11037090326353990455
-0.13445867134833305867
-0.14375800655981904597
-0.14200531959016832184
-0.13384940720470420161
-0.12085664255804184908
-0.10404909557921858398
-0.084250292255794570484
-0.062028535167019026308
-0.03780970410202522114
-0.012012323915188281159
0.014837537626780783126
0.042000026267794247914
0.06841884815997320568
0.092622571307559062315
0.11270500124991930657
0.12657096125869768399
0.1317772313056597977
0.12289854697514315807
0.096153546986778345995
-0.15536065363144266338
-0.18014609581891916079
-0.18674824565094438888
-0.18037769903765646373
-0.16702793944685914718
-0.14881713038467009325
-0.12699035527870028428
-0.10240854711421605583
-0.07554731431018971155
-0.046663780526055312348
-0.015972088682999811826
0.016210131982668324335
0.04932146990034619316
0.082408217890287321916
0.11396069019360811903
0.14181637857729822993
0.1633498407517903761
0.17520196276363222965
0.17021043345559538906
0.14289475859250566625
-0.21595982899328472482
-0.23974190503540868113
-0.24085591963524180525
-0.22699722047858092444
-0.20600981867678833104
-0.18068489365253542767
-0.15245748753393520425
-0.12212762769420452968
-0.089958684127001378728
-0.055917017364972128324
-0.01988956806401182692
0.018143822383420275118
0.057942466091601182998
0.098812051923008750731
0.13936466373239822514
0.17730762109486877809
0.2095039781946222146
0.2314951227217784957
0.23386926730690127396
0.20846522322219182555
-0.29843101729618753959
-0.31734861008194892307
-0.30796430748523700993
-0.28215349358917241052
-0.25009498413649144943
-0.21523684313553298475
-0.17903347820317513928
-0.1420092433893930528
-0.10401419739216080651
-0.064550215359642088009
-0.023019679170659935324
0.02109517240115129505
0.068056643756951029633
0.11765145817838608411
0.16887927070733246837
0.21959577627152870871
0.26633925666330549031
0.30350892009009750039
0.31903530609810970553
0.30062018554618008537
-0.41356161490683490678
-0.41881487024918367945
-0.38991844668383657257
-0.34535230209849610006
-0.29757197195920237487
-0.25027684677948675018
-0.20448395291310417221
-0.16002149251157346543
-0.11600663920445106192
-0.071244777663311720239
-0.024469496738421119691
0.025511013368980504923
0.079671483237303025726
0.13856342234227619903
0.20197224638198330027
0.26841893135255689984
0.33462606583430631879
0.39417793107087573112
0.43251667321532583088
0.43144736278594381096
-0.5778650692990582316
-0.54956583309234763313
-0.48583772892192395032
-0.41325859048031465814
-0.34428596814034390095
-0.28172079047882497838
-0.22524401796922380314
-0.17327314279864350355
-0.12374707414025630514
-0.074512309208567301111
-0.02346109563982325466
0.031423308487941961631
0.092020110113946340658
0.1599512809789603307
0.23630320554558237323
0.32107682851667740387
0.41216049691553091616
0.50336455184153205966
0.5798224621694131331
0.6173064358023209186
-0.81918478382383885794
-0.71112593339256480185
-0.58782388024932885617
-0.47702867054632097643
-0.38216891510646666674
-0.30289145012381701871
-0.23619271412030035107
-0.17806762444849358329
-0.12476967784411283069
-0.072986285338030421066
-0.019691713771226356661
0.038015961037777483422
0.10301595175381834946
0.17824758801353948745
0.26666145043930378211
0.37082252063384280039
0.49124237395760128599
0.6239897978531157019
0.76177320785824254035
0.8825889143484497712
-1.2384633539264517932
-0.93127475515387692084
-0.69954328308802293801
-0.53580599574214116121
-0.40997533637534583351
-0.31312638334762932235
-0.23746126987576643419
-0.17517022755826264224
-0.12023310643473873738
-0.068037188920516147861
-0.014666345521833932738
0.043666377267748635038
0.1108501151139158758
0.19135401649244593303
0.29067943184335948148
0.41550697472471204152
0.57143833189625170554
0.76168540790336258794
1.0072942783373579623
1.3177078082802640147
-2.0740131485561668079
-1.2877932247773526964
-0.84584918084460847254
-0.60490086681993437967
-0.44123063563734554737
-0.32512352669436156427
-0.24072049121592459242
-0.1750158321191072619
-0.11921978603351919557
-0.067263619211165637246
-0.014308682533642536061
0.04405817942748666699
0.11273328225269220459
0.19778701630637671172
0.30782670819039814614
0.45554028218095887759
0.65673734481637247029
0.93534636601336818007
1.3868871617020910314
2.130505188906781644
-2.6363796314103744578
-1.2816052202133187965
-0.73068832353396795387
-0.49250216023453335934
-0.34760278941701205913
-0.25163403867480932385
-0.18526903085249274428
-0.13549545912795099567
-0.094306835494834942435
-0.056468690184352195172
-0.017994645115768072297
0.024705403857262598494
0.075524096180378738619
0.13955686270400888271
0.22460652909915684861
0.34400850071603800151
0.52058372459489077322
0.80323904128169676397
1.3752794156674055248
2.6013647374221595676
)
;

boundaryField
{
    movingWall
    {
        type            fixedValue;
        value           uniform 0;
    }
    fixedWalls
    {
        type            zeroGradient;
    }
    frontAndBack
    {
        type            empty;
    }
}


// ************************************************************************* //
