/*--------------------------------*- C++ -*----------------------------------*\
| =========                 |                                                 |
| \\      /  F ield         | OpenFOAM: The Open Source CFD Toolbox           |
|  \\    /   O peration     | Version:  2412                                  |
|   \\  /    A nd           | Website:  www.openfoam.com                      |
|    \\/     M anipulation  |                                                 |
\*---------------------------------------------------------------------------*/
FoamFile
{
    version     2.0;
    format      ascii;
    arch        "LSB;label=32;scalar=64";
    class       surfaceScalarField;
    location    "0.2";
    object      phi;
}
// * * * * * * * * * * * * * * * * * * * * * * * * * * * * * * * * * * * * * //

dimensions      [0 3 -1 0 0 0 0];

oriented        oriented;

internalField   nonuniform List<scalar> 
760
(
1.006607529397952452e-08
-1.0066024710019412316e-08
-2.3702295433725147133e-08
3.3767868481176837918e-08
-1.0344191926552169909e-07
7.9740157741353806471e-08
-2.1452210813978152097e-07
1.1108051814912625073e-07
-3.4036288828240629616e-07
1.2584089124024821317e-07
-4.6572094708160623597e-07
1.2535816171381806887e-07
-5.7773148515591162015e-07
1.1201068117766287484e-07
-6.6623523534406381897e-07
8.850388303197355686e-08
-7.2377319052516551575e-07
5.7538046750831567616e-08
-7.4554016345793915137e-07
2.1766990851060829546e-08
-7.2942767023578385585e-07
-1.6112582306303044418e-08
-6.7618065223440767937e-07
-5.3247267351563965574e-08
-5.8963585314831565046e-07
-8.6545198173046252288e-08
-4.7696940017108552399e-07
-1.1266690161205891099e-07
-3.4884050242292388156e-07
-1.2812926680620300201e-07
-2.192476232286841665e-07
-1.2959308638140946866e-07
-1.0481384965623680016e-07
-1.1443381278045203871e-07
-2.3204276227055700638e-08
-8.1609467505127475765e-08
1.0708411838384851031e-08
-3.391242539626444521e-08
1.0708780351306211263e-08
-3.2171314773788219798e-08
2.210584081983715603e-08
-1.5921048495645961469e-07
1.6080609205813264573e-07
-3.7425777169341095416e-07
2.9478742790793947835e-07
-6.5054430722631858137e-07
3.8736720248112527079e-07
-9.5518094020655499544e-07
4.3047770489011638812e-07
-1.2556371819941369249e-06
4.2581467734788786431e-07
-1.5230483899023729471e-06
3.7942204389035840941e-07
-1.7338251579549573489e-06
2.9928069368145091311e-07
-1.8703422099093169976e-06
1.9405504941505537415e-07
-1.9212655079810276882e-06
7.269007524880375728e-08
-1.8818321679436485256e-06
-5.5546318958566336832e-08
-1.7541976794553678996e-06
-1.8088229790654877437e-07
-1.5478175872399711911e-06
-2.9292587939363129484e-07
-1.2797052246600518025e-06
-3.8077976414677915305e-07
-9.742917894744925069e-07
-4.3354298458686373476e-07
-6.6248114999086816717e-07
-4.4140368472509052894e-07
-3.7935453361419438762e-07
-3.975600007735519071e-07
-1.5990339588873153494e-07
-3.0105982037988613019e-07
-3.1600458096133963469e-08
-1.6221439405079952954e-07
-2.0891473359431304338e-08
-8.0452166334198415695e-08
1.0255874066656852323e-07
-3.0471626385230534499e-07
3.850699667353034009e-07
-6.446695741884741529e-07
6.347405773549188288e-07
-1.0606499986368935534e-06
8.0334764890629893773e-07
-1.5081677519709522055e-06
8.7799554465958374489e-07
-1.9436741626662991946e-06
8.613214652354678072e-07
-2.3283074115725075578e-06
7.6405557856849550693e-07
-2.6300466538163546358e-06
6.0102005391536028753e-07
-2.8248374506597456473e-06
3.8884582121709896397e-07
-2.8972043953164260292e-06
1.4505682177038073942e-07
-2.8407049031151548347e-06
-1.1204616275124064288e-07
-2.658384913028299417e-06
-3.632027316267669297e-07
-2.3632134074659487157e-06
-5.8809781529299244881e-07
-1.9783048717192188129e-06
-7.6568860809153165313e-07
-1.5365845749730282324e-06
-8.7526343241374173917e-07
-1.0794211587665322913e-06
-8.9856711114457008223e-07
-6.5369588577281495319e-07
-8.232850993126891658e-07
-3.0688727724055046099e-07
-6.4786800865112710818e-07
-8.0026285711556161295e-08
-3.8907489576429180219e-07
-1.0091771160108020342e-07
-1.2305752751784965345e-07
2.256162815027743924e-07
-4.3894427456428935677e-07
7.0095717675305583075e-07
-8.9544649681579536078e-07
1.0912428671960637687e-06
-1.4372134450073886084e-06
1.3451147436945274764e-06
-2.0085083676222883016e-06
1.4492905469155795631e-06
-2.5571542424584282937e-06
1.4099676754264620328e-06
-3.0375202177428551978e-06
1.244421734129033782e-06
-3.4123583047259179096e-06
9.7585814462487425288e-07
-3.6538007220959124388e-06
6.3028812170953062251e-07
-3.743915490510976783e-06
2.3517133822896496056e-07
-3.6751434944255753869e-06
-1.8081850729181966962e-07
-3.4507862890088402547e-06
-5.8756031969687745218e-07
-3.08553238381172881e-06
-9.5335205701526988067e-07
-2.6058293352833108201e-06
-1.245391846709125008e-06
-2.0497404169538989746e-06
-1.4313523474558655149e-06
-1.4658042432462433261e-06
-1.4825031398471913938e-06
-9.1041902018496188722e-07
-1.3786701237659295087e-06
-4.4351193943722662663e-07
-1.1147749593295678258e-06
-1.2292270829070426963e-07
-7.0966403349697522903e-07
-2.2384046910150687187e-07
-1.6064703001720384675e-07
3.8626289392341359225e-07
-5.6152965335599072732e-07
1.1018398927659384931e-06
-1.1269247812107459935e-06
1.6566379403880888261e-06
-1.7845033830082663148e-06
2.0026934904862022082e-06
-2.4669847288289440596e-06
2.1317719753282482969e-06
-3.1145913908744265275e-06
2.0575747218292292613e-06
-3.676813675042093564e-06
1.8066442683613966196e-06
-4.1133257183630615936e-06
1.4123703179409481742e-06
-4.3943226439057701124e-06
9.1128514017571619287e-07
-4.5006326736163528311e-06
3.4148141135691945542e-07
-4.4239079300462275394e-06
-2.5754323064291296826e-07
-4.1670674392075980659e-06
-8.4440079539430838478e-07
-3.7449974371624575882e-06
-1.3754220753252766661e-06
-3.18533076101702569e-06
-1.8050585837250939649e-06
-2.5289429069686156783e-06
-2.0877402672106824998e-06
-1.8296556615523303029e-06
-2.1817903933283957327e-06
-1.1526135878824182096e-06
-2.0557121227843616123e-06
-5.7101628553992729282e-07
-1.696372309900415717e-06
-1.6151189463987651793e-07
-1.1191686038575888275e-06
-3.8535243959545394413e-07
-1.9532758493926264608e-07
5.8159050552366354877e-07
-6.7615531752308275519e-07
1.582667565012601605e-06
-1.343908002159138406e-06
2.3243906158373171399e-06
-2.1087594891516861743e-06
2.7675451514854042633e-06
-2.8918308827455863503e-06
2.9148433404271092826e-06
-3.626598151389017138e-06
2.7923421529959400156e-06
-4.2592290321106285241e-06
2.4392751220403749395e-06
-4.7481361968362857109e-06
1.9012773198401149161e-06
-5.0631948526267540179e-06
1.2263436133693234498e-06
-5.1850449689349371551e-06
4.6333134814132773839e-07
-5.1048037955293093266e-06
-3.3778451243451027982e-07
-4.8243806701069882024e-06
-1.1248238920482657038e-06
-4.3574286128956416438e-06
-1.8423740010393065186e-06
-3.7307845837233682626e-06
-2.4317024910807838415e-06
-2.9860382576568025288e-06
-2.8324865535935246852e-06
-2.1806487511841494666e-06
-2.9871799143033755941e-06
-1.3878778808612587564e-06
-2.8484830159754450796e-06
-6.9486823403139461511e-07
-2.3893820849022490809e-06
-1.9857762788545816347e-07
-1.6154595454842065217e-06
-5.8393009020826859069e-07
-2.2905298307457862809e-07
8.1064354800727952449e-07
-7.8670469380069495175e-07
2.1403190602133059468e-06
-1.5509171737451554068e-06
3.0886030213665033305e-06
-2.4139245790394897275e-06
3.6305526499988836031e-06
-3.2856387812291964256e-06
3.7865573936752210089e-06
-4.0940955101719099139e-06
3.6007988811703361754e-06
-4.7840551991112258818e-06
3.1292346821868959801e-06
-5.3147433897280577152e-06
2.4319653035103600022e-06
-5.6575143866340438955e-06
1.5691144163038666422e-06
-5.7940012832636114996e-06
5.9981807816732680241e-07
-5.7151251510427777017e-06
-4.1666073247470239186e-07
-5.4211817655592963835e-06
-1.4187672112089810664e-06
-4.9230837504284411825e-06
-2.3404717978832922572e-06
-4.2446671207763712809e-06
-3.1101188646679849138e-06
-3.4257303887904403358e-06
-3.6514231166124085165e-06
-2.5251438824032617104e-06
-3.887766362851429918e-06
-1.6230023042727897742e-06
-3.7506246480799033476e-06
-8.2056278581324038391e-07
-3.1918216858872473989e-06
-2.3673281404264627578e-07
-2.1992898543315139735e-06
-8.206627749174418153e-07
-2.634118415935757107e-07
1.0740552674191494436e-06
-8.9610655917242812157e-07
2.7730135112632463565e-06
-1.7501797318362828777e-06
3.9426760278029109269e-06
-2.6992292707385758935e-06
4.5796021420214389275e-06
-3.6429549510253722962e-06
4.7302827965061183929e-06
-4.5061684692330018445e-06
4.4640122190386928e-06
-5.2350201615608463852e-06
3.8580861668051560237e-06
-5.792339641580398536e-06
2.9892845659355285473e-06
-6.1532919306089635091e-06
1.9300665097507561248e-06
-6.3020585726436199379e-06
7.4858456404084523503e-07
-6.2299354120922533024e-06
-4.8878397363190031569e-07
-5.9350696043509321024e-06
-1.7136329830817955306e-06
-5.4239649421695507555e-06
-2.8515763084307179173e-06
-4.7147685601890116261e-06
-3.8193150466855365399e-06
-3.8421128165750802435e-06
-4.5240786974371585027e-06
-2.8628404260684218802e-06
-4.867038659286693439e-06
-1.8612875513099205903e-06
-4.752177546615855288e-06
-9.5211251270338762125e-07
-4.1009966401349305317e-06
-2.7811332496299761516e-07
-2.873289240499805361e-06
-1.0987757732333220698e-06
-2.9969944139437255883e-07
1.3737545304029262648e-06
-1.005982805341872632e-06
3.4792966630811556548e-06
-1.9405340456403349204e-06
4.8772270596798579495e-06
-2.9573772000816037202e-06
5.5964451526746191782e-06
-3.9479772398631480227e-06
5.7208825119080687871e-06
-4.8375465265396034583e-06
5.3535811687278513427e-06
-5.5777552163860263213e-06
4.598294575804500878e-06
-6.1388792689960891151e-06
3.5504083745850240749e-06
-6.5029832655670487474e-06
2.2941702285773346808e-06
-6.6588808477198064575e-06
9.0448185849568646013e-07
-6.5991659251405272317e-06
-5.4849911993705688123e-07
-6.3194663245863573275e-06
-1.9933327101026674933e-06
-5.8200901888709827633e-06
-3.3509524967512163957e-06
-5.1102502353062481655e-06
-4.5291550149658041765e-06
-4.2148938928803691479e-06
-5.419435027087835041e-06
-3.1836605345615632493e-06
-5.8982719826417233158e-06
-2.10050808135395435e-06
-5.8353299956184462007e-06
-1.0911971791740964665e-06
-5.11030728741353745e-06
-3.2431454078635942298e-07
-3.6401719330282388493e-06
-1.4230899327709781613e-06
-3.3923017487527598712e-07
1.7129846138702485669e-06
-1.1167067992850215383e-06
4.2567731577375018302e-06
-2.1165679634246435855e-06
5.877088030654271979e-06
-3.1725501792802998557e-06
6.6524272152565554553e-06
-4.1716340835168697494e-06
6.7199662066762478669e-06
-5.0451498836657695791e-06
6.2270965968757126312e-06
-5.7561673934509347504e-06
5.3093118297040154156e-06
-6.287476090166536658e-06
4.081716928501876998e-06
-6.6319190101143732824e-06
2.6386129256082079947e-06
-6.7855573666548204409e-06
1.0581198853201847087e-06
-6.7436163715363280226e-06
-5.9044044069707269212e-07
-6.4991462000389229033e-06
-2.237803135658823104e-06
-6.0445683690517296131e-06
-3.8055305406891731745e-06
-5.3765423934215226037e-06
-5.1971811924985952946e-06
-4.5046572258291414843e-06
-6.291320343533801868e-06
-3.4640386053394581515e-06
-6.9388906918294730776e-06
-2.3307282138835279334e-06
-6.9686404257733326864e-06
-1.2364723301366104682e-06
-6.2045629062410162104e-06
-3.7647821539245104102e-07
-4.5001661397476181849e-06
-1.7995680264233969885e-06
-3.8382915337116360506e-07
2.0968137815468278455e-06
-1.2273982775310586246e-06
5.1003422317287910545e-06
-2.2670722565127302339e-06
6.9167619015569234929e-06
-3.3171103424293673587e-06
7.702465237243610432e-06
-4.2670128168168403341e-06
7.6698687835378210112e-06
-5.0629658763723581669e-06
7.0230494542424237579e-06
-5.6873726911309259883e-06
5.9337185565367398053e-06
-6.1417076527108082536e-06
4.5360520122312184577e-06
-6.4339701788195981501e-06
2.9308755379260702868e-06
-6.5703653120982831112e-06
1.1945149461902217513e-06
-6.5504227114225753225e-06
-6.1038319388407182433e-07
-6.3650517407648751008e-06
-2.4231742474901853909e-06
-5.9976212018841813871e-06
-4.1729612204855134002e-06
-5.4288061669299296667e-06
-5.7659963929766628465e-06
-4.646443636333132548e-06
-7.0736830113499864168e-06
-3.6616183510185076582e-06
-7.9237161215344578588e-06
-2.5310101764428814007e-06
-8.0992487096819181441e-06
-1.3824584115566538657e-06
-7.3531145728870449631e-06
-4.3540974165564772492e-07
-5.4472151781112746328e-06
-2.2349780803658829649e-06
-4.3647949331473067104e-07
2.533293350865877072e-06
-1.3351336726645679661e-06
5.9989964634822616545e-06
-2.3713236475216270053e-06
7.9529519136414286945e-06
-3.3451977038703072914e-06
8.6763393324000318506e-06
-4.1615243780313876628e-06
8.4861959290363496883e-06
-4.794153728276607558e-06
7.655678904734029383e-06
-5.2547078457171254488e-06
6.3942727856290453988e-06
-5.5699209223210078106e-06
4.8512654207129492849e-06
-5.7669968853008623318e-06
3.1279518872107519784e-06
-5.8648122771786414848e-06
1.2923306172561801323e-06
-5.8689237057707590662e-06
-6.0627159179923634991e-07
-5.7692023748501264176e-06
-2.5228954477157870123e-06
-5.5399911425856459437e-06
-4.4021723566575568203e-06
-5.1438193016337367279e-06
-6.1621681738619675265e-06
-4.5408482416107859078e-06
-7.6766540038075296902e-06
-3.7070493825256474975e-06
-8.7575150363763887491e-06
-2.6636710505014399304e-06
-9.142627151406709069e-06
-1.5172070682316591402e-06
-8.4995786319040416492e-06
-5.0161496421893944555e-07
-6.4628079793277818656e-06
-2.7365935005812347625e-06
-5.0191500405489273059e-07
3.0352084461111100827e-06
-1.4317317882409007203e-06
6.928813396064490065e-06
-2.3903097372800577526e-06
8.911530038659359296e-06
-3.1800942412282025561e-06
9.4661238351183737532e-06
-3.7432853011995543497e-06
9.0493875690873793165e-06
-4.098851388911031473e-06
8.0112452717176072176e-06
-4.298295784551597121e-06
6.59371731623948141e-06
-4.3988377705004682834e-06
4.9518076049855353469e-06
-4.4489755430486103711e-06
3.1780898980679952513e-06
-4.4812342747737213974e-06
1.3245895497793106346e-06
-4.5083678755669364535e-06
-5.7913784362091765461e-07
-4.5210522969571992886e-06
-2.510210907261119913e-06
-4.4866850552448190565e-06
-4.4365394908430956178e-06
-4.3504603294537611444e-06
-6.2983927640727069007e-06
-4.0417469997058102249e-06
-7.9853671248873199376e-06
-3.4909818673925138892e-06
-9.3082801210399906326e-06
-2.6637850889019964137e-06
-9.9698239717113539986e-06
-1.6171024076914724788e-06
-9.5462613935186124486e-06
-5.7486397070785352473e-07
-7.5050471240305486503e-06
-3.3114574430161108543e-06
-5.858267360876022292e-07
3.6210352474911073681e-06
-1.493735976925724897e-06
7.8367227458138509575e-06
-2.2468326276423924439e-06
9.6646269056098970231e-06
-2.6898426606733952345e-06
9.9091336603666249172e-06
-2.8380154175042083224e-06
9.197560550653476684e-06
-2.7759654770792960472e-06
7.9491954605853930451e-06
-2.6030287212536366066e-06
6.4207805034762913953e-06
-2.4073874752956293333e-06
4.756166174815258832e-06
-2.2563807334573850838e-06
3.0270828791768757651e-06
-2.1939087178826892631e-06
1.2621172021695138349e-06
-2.2396214616625851097e-06
-5.3342543920657725859e-07
-2.3874430418207748887e-06
-2.3623896357860802639e-06
-2.6028071753959457308e-06
-4.22117559901469986e-06
-2.8195510106336399664e-06
-6.0816490170841304563e-06
-2.9397115037315585371e-06
-7.8652065026944456468e-06
-2.8432334578977268863e-06
-9.4047581204327760843e-06
-2.4194397883753287592e-06
-1.0393617599740654817e-05
-1.6347761444464688098e-06
-1.0330924922166038826e-05
-6.5165004868252930611e-07
-8.4881733686628933381e-06
-3.9631067246710555501e-06
-6.8774234082342958766e-07
4.3087775806495367634e-06
-1.4536842248083120017e-06
8.6026644678417108121e-06
-1.7814037882351200209e-06
9.9923465737631253221e-06
-1.6415861205591037158e-06
9.7693156992982268421e-06
-1.1716287206178685331e-06
8.7276028866039986269e-06
-5.378675534494104849e-07
7.3154341576143068387e-06
1.1485037051869858985e-07
5.7680624631765256728e-06
6.7699337863536772591e-07
4.1940229728015971454e-06
1.0725596897072825699e-06
2.631516272243498968e-06
1.2535750207142058661e-06
1.0811015196480172794e-06
1.1962754361447608192e-06
-4.7612619945991691238e-07
9.0092079928827875307e-07
-2.0670353041775402473e-06
3.9582158078781191823e-07
-3.7160766185539180174e-06
-2.5464050495742837683e-07
-5.4311870103368225227e-06
-9.4007381245455121551e-07
-7.1797730550534372371e-06
-1.4988941028511276643e-06
-8.8459377975368792086e-06
-1.7332812239943010165e-06
-1.0159230433570949159e-05
-1.4699099849181817094e-06
-1.0594295964733183794e-05
-7.1564808186407620935e-07
-9.2424347622179707073e-06
-4.678754245743493265e-06
-7.7378391352269534069e-07
5.0825613991596154154e-06
-1.1241988211142440249e-06
8.9530789178388323508e-06
-6.5939173198751247115e-07
9.5275393517527471313e-06
3.7798914405713399057e-07
8.7319348237579979237e-06
1.6840432016605480578e-06
7.4215486259748846318e-06
3.0188575309758945128e-06
5.9806197924057497202e-06
4.2173054435236736687e-06
4.5696147756748126906e-06
5.1742449906580263182e-06
3.2370838087669447336e-06
5.8250833804012409808e-06
1.9806783237219454278e-06
6.1306917571934386893e-06
7.7549360153451675739e-07
6.0688899807294386255e-06
-4.1432396199283589391e-07
5.6322882420115939422e-06
-1.6304331367740174525e-06
4.8325154079384036475e-06
-2.9163034178590399988e-06
3.7118006735000772246e-06
-4.3104719299830187803e-06
2.3627690108015308497e-06
-5.8307410510196849124e-06
9.542390934253152993e-07
-7.4374078742202130173e-06
-2.4887675278110452105e-07
-8.9561147206727844338e-06
-9.0014659530261205631e-07
-9.9430262271371946503e-06
-7.0887132684340051257e-07
-9.4337095559561960395e-06
-5.3876264667799318058e-06
-6.8900135813765782752e-07
5.7715626475727302877e-06
-1.6715929904589851264e-08
8.2807932376832027064e-06
1.7974697377375585578e-06
7.713353435910384539e-06
4.0754212675180920871e-06
6.4539834972850631338e-06
6.3673168871613656657e-06
5.1296532086328774767e-06
8.4278614611968115817e-06
3.9200754212138593551e-06
1.0133354468014839003e-05
2.8641220676664132634e-06
1.1426629659522969274e-05
1.9438090169507923828e-06
1.2281940797038170442e-05
1.1253676402235347346e-06
1.2684783385592317704e-05
3.7265146156550095132e-07
1.2621877640083513646e-05
-3.5141782695048500659e-07
1.2078197405500400432e-05
-1.0867526220159672021e-06
1.1039412540955207407e-05
-1.8775184081882904366e-06
9.5026444108070557771e-06
-2.7737037416837115813e-06
7.4995287586606614218e-06
-3.8276253994673842197e-06
5.13819338355407265e-06
-5.076072814763515758e-06
2.6680423676896023092e-06
-6.4859640381455884681e-06
5.6426269515812975565e-07
-7.8392467794165468921e-06
-4.4597968589068420395e-07
-8.4234670874300543464e-06
-5.8336072352643018334e-06
1.8383255001246341278e-07
5.5877300364952491458e-06
3.0470164350554766497e-06
5.4176096716860056859e-06
6.8792207371786319171e-06
3.8811492284367592523e-06
1.0565616851224516606e-05
2.767587226588341903e-06
1.373908850470126038e-05
1.9561813117355249527e-06
1.6313168166761055582e-05
1.3459954189893590572e-06
1.8299074900687918507e-05
8.7821490630809604119e-07
1.9734964765602006564e-05
5.0791867269395303516e-07
2.0656084704871579004e-05
2.0424720696326608585e-07
2.1082931689839220184e-05
-5.4196015547987487966e-08
2.1016097826352155427e-05
-2.8458444230895991732e-07
2.0435738790583729535e-05
-5.0639403264356090127e-07
1.9299612849314806749e-05
-7.4139283038288392493e-07
1.7546498832301279084e-05
-1.0205899171358924327e-06
1.5107676043709390753e-05
-1.3888025992096941761e-06
1.1940894974792908467e-05
-1.9092917119705174125e-06
8.1140554766842499563e-06
-2.6591242092565765756e-06
3.9933351898305149722e-06
-3.7185259208978092461e-06
6.6732347262726343737e-07
-5.0974552228696761412e-06
-5.1662829422288464326e-06
4.1259087591712707729e-06
1.4618212095047802734e-06
1.113350173823904324e-05
-1.5899835013833635071e-06
1.7008827266308645373e-05
-1.994176510563226961e-06
2.1485127435548081158e-05
-1.7087130864583404103e-06
2.482630880002998619e-05
-1.3850000298603913717e-06
2.7282976218525481715e-05
-1.1106718084682284042e-06
2.9053015045555263731e-05
-8.918235970884907228e-07
3.027275674595689077e-05
-7.1182260627577874153e-07
3.1027211450897467654e-05
-5.5020702535351873901e-07
3.1362016006746569333e-05
-3.8900012154832684927e-07
3.1290191878669854238e-05
-2.1275996249557528876e-07
3.0791470932924340682e-05
-7.6728678286136724315e-09
2.9810561433386801667e-05
2.3951677669908849983e-07
2.8246891869206597017e-05
5.4307968512266459695e-07
2.5940395110837848681e-05
9.1769412807438802118e-07
2.2657628865133917301e-05
1.3734743732059426779e-06
1.8106387651221594166e-05
1.8921169374820883632e-06
1.2023105106511622109e-05
2.3647563677042181207e-06
4.6826660168022304524e-06
2.2429834361746480375e-06
-4.8361712429833430335e-07
2.1434802946498266758e-05
3.137491857773237351e-05
3.5983727320421768944e-05
3.8734229579576614198e-05
4.0500228588144400195e-05
4.1672401179110815943e-05
4.2462270354141012181e-05
4.298084824845938652e-05
4.3287308809842424059e-05
4.3411420960393728617e-05
4.3362224238284498572e-05
4.3129910785548305422e-05
4.2682415722807404395e-05
4.1955330048602394776e-05
4.0827342380930431377e-05
3.9064524800403313336e-05
3.6203524399444927766e-05
3.1216978358771391979e-05
2.0811994733999361889e-05
)
;

boundaryField
{
    movingWall
    {
        type            calculated;
        value           nonuniform List<scalar> 
20
(
-1.9972981811512716891e-05
-1.1530099123839336213e-05
-6.6029852908070020995e-06
-4.459215447120857451e-06
-3.1509991730004559716e-06
-2.2828445479448592201e-06
-1.681692924163898637e-06
-1.2304006434721408328e-06
-8.5666770843670292839e-07
-5.1311238288962539526e-07
-1.6356336334613094815e-07
2.2464045841047171517e-07
6.8701177617727869455e-07
1.2701654162360785037e-06
2.0456819248906892663e-06
3.136292129663526305e-06
4.7531176035052397752e-06
7.3513018306776622485e-06
1.2647968302485369644e-05
2.0328377022726558523e-05
)
;
    }
    fixedWalls
    {
        type            calculated;
        value           uniform 0;
    }
    frontAndBack
    {
        type            empty;
    }
}


// ************************************************************************* //
