/*--------------------------------*- C++ -*----------------------------------*\
| =========                 |                                                 |
| \\      /  F ield         | OpenFOAM: The Open Source CFD Toolbox           |
|  \\    /   O peration     | Version:  2412                                  |
|   \\  /    A nd           | Website:  www.openfoam.com                      |
|    \\/     M anipulation  |                                                 |
\*---------------------------------------------------------------------------*/
FoamFile
{
    version     2.0;
    format      ascii;
    arch        "LSB;label=32;scalar=64";
    class       volVectorField;
    location    "0.2";
    object      U;
}
// * * * * * * * * * * * * * * * * * * * * * * * * * * * * * * * * * * * * * //

dimensions      [0 1 -1 0 0 0 0];

internalField   nonuniform List<vector> 
400
(
(0.0001945223935539231255 -0.00019216210154330705504 0)
(4.8443346850335681185e-05 0.00012526399770083963847 0)
(-0.0011181026256147446295 0.00050114210139601516724 0)
(-0.003087816849981423091 0.00075791784279754365571 0)
(-0.0055215503309035095236 0.00088039855491476594861 0)
(-0.0080926018031480962539 0.00088480340532428409725 0)
(-0.010515923393058148466 0.00079336527571929828153 0)
(-0.012559554248996355336 0.00062843111728210854575 0)
(-0.014046828881946280682 0.00041040115743233205291 0)
(-0.014854849006632824329 0.00015812071107192799367 0)
(-0.014913993950774060565 -0.00010978600760933203743 0)
(-0.014209885778571179973 -0.00037354114404402954594 0)
(-0.012787539537355292751 -0.00061116622397222402328 0)
(-0.010756618297246360247 -0.00079799348148810957029 0)
(-0.0082960563482003188418 -0.00090697486022995872472 0)
(-0.0056551434591638376562 -0.00091039581090506080559 0)
(-0.0031457897352719843206 -0.00078399099644991057396 0)
(-0.0011212752786706153656 -0.00051418756460104629667 0)
(6.5061426269425728583e-05 -0.00012363065154404983929 0)
(0.000203092872596296963 0.00019935736782632305225 0)
(-0.00010069454486070946982 -6.9354977343339004308e-05 0)
(-0.0014712389877357913079 0.0014927012870333572925 0)
(-0.0049689501184409633899 0.0031196514641668071817 0)
(-0.010040227982378233107 0.0042536937781070651224 0)
(-0.016006394461799241385 0.0047936373588542422267 0)
(-0.022202063772627348565 0.0047703381631635961846 0)
(-0.028005066652347931216 0.0042630981378407968238 0)
(-0.032884683745360215879 0.0033692778156634824518 0)
(-0.03642611559093886231 0.0021900305841008097484 0)
(-0.038338408730327511176 0.0008270270625671222002 0)
(-0.038459195734335697991 -0.00061553360594804264107 0)
(-0.036760781265529493544 -0.0020275808659558866055 0)
(-0.033357853255916863899 -0.0032908265253909466282 0)
(-0.028514836376561245729 -0.0042791698646620556987 0)
(-0.022648947976736551885 -0.0048635816809439319508 0)
(-0.01632173645813406529 -0.0049241138385798443808 0)
(-0.010204878784763645252 -0.0043725738953015536384 0)
(-0.0050145659078220088806 -0.0031882317817543671078 0)
(-0.0014601618611300977522 -0.0015013066583989395295 0)
(-8.9745757403071564412e-05 8.9478439184905497056e-05 0)
(-0.00047970699459786044199 0.0010594092259111286512 0)
(-0.0032120947490730132265 0.0050035160426459019539 0)
(-0.0089904136212930908095 0.008682912763698589706 0)
(-0.016791151748811253275 0.011219481788777470321 0)
(-0.025646911762913362359 0.012386397912659498702 0)
(-0.034677580575146187136 0.012217510568726431402 0)
(-0.043052067948518110696 0.010872167729519349733 0)
(-0.050052419042128523663 0.0085695172649454896124 0)
(-0.055113548625309934093 0.0055529354046222074298 0)
(-0.057837979316268162133 0.0020769707610160692036 0)
(-0.058004576486454864637 -0.001593271897348544049 0)
(-0.055577334459874755401 -0.0051784620067057834936 0)
(-0.050714760822150178887 -0.0083829440673685827468 0)
(-0.043777656889691422826 -0.010899033650899125208 0)
(-0.035330613990567652505 -0.012422290907685982694 0)
(-0.026127901973369862393 -0.012683187994001216686 0)
(-0.017063312915108642259 -0.011500783575095839539 0)
(-0.0090858233594413636419 -0.008860207551845005608 0)
(-0.003211233606292056026 -0.0050480534700515135998 0)
(-0.00046725657028822423699 -0.0010286205392074077285 0)
(-0.00080451003657201237973 0.0031121391194158950187 0)
(-0.0047998542764956667397 0.010448665185682543335 0)
(-0.012734215357102424138 0.016717785898551249663 0)
(-0.023042184851232432041 0.02089629643795360564 0)
(-0.034446719094968845931 0.02269727710730758477 0)
(-0.045885953030783938056 0.022191959759592160689 0)
(-0.056380669563509865083 0.019648455630343439338 0)
(-0.065093085395242028524 0.015438361521436740412 0)
(-0.071367967539860396875 0.0099814944459061805127 0)
(-0.074745486406344763264 0.0037223736040966912478 0)
(-0.07496884512138461687 -0.0028739200716659768324 0)
(-0.071993161769598496003 -0.0093182161873629158061 0)
(-0.065996058589033693154 -0.015095664312056665188 0)
(-0.057387895325508642141 -0.019674522701674333064 0)
(-0.04681715112191564554 -0.022533172775590904618 0)
(-0.035160740923092466403 -0.023213218957411928256 0)
(-0.023473693240318803388 -0.021404563305838598952 0)
(-0.012908867365629740978 -0.017059930787768302907 0)
(-0.0048180251783748956687 -0.010560011469964563149 0)
(-0.00079071030758717472144 -0.0030734154827021993063 0)
(-0.0010806456304858860253 0.0059629930999990105739 0)
(-0.0062281231739405029657 0.017645321433225082813 0)
(-0.016182047479010350233 0.026975673035746518952 0)
(-0.028823032380804729929 0.03294012680172517249 0)
(-0.042547266739725787821 0.035296510611827841553 0)
(-0.056118755282200623313 0.034222036997966769067 0)
(-0.068441998208696244732 0.030139429999765002255 0)
(-0.078602674624733540054 0.023604795931383756175 0)
(-0.0858978947392990827 0.015238136126560780301 0)
(-0.089837873817624661066 0.0056926534156671740675 0)
(-0.090146333948692911053 -0.0043504688794969116269 0)
(-0.086766422517441058049 -0.014176263809523607581 0)
(-0.079872498751794238081 -0.023032227210641492698 0)
(-0.06988612476497592374 -0.030138728401943693652 0)
(-0.057492355634029011779 -0.034724888205628225146 0)
(-0.043645342411729286247 -0.036100229096833608144 0)
(-0.02953176965161739484 -0.03376775568962694235 0)
(-0.016508487042771087527 -0.027570588944351857169 0)
(-0.0062942633163792088835 -0.01787886883212329997 0)
(-0.0010703565292711756697 -0.0059270312457671402856 0)
(-0.0013313347260263620666 0.0095307796102791671189 0)
(-0.0075566916103659469497 0.026481798475662045311 0)
(-0.019416841061843579525 0.039336817923378758488 0)
(-0.034240708620646181926 0.047205740691604977655 0)
(-0.050090580569068100802 0.050004091239617333431 0)
(-0.065563512671169180135 0.048103765599824571675 0)
(-0.07947354416073505734 0.042144039147467143858 0)
(-0.090865976556524966079 0.03290425335162820708 0)
(-0.099026696827255455968 0.021225274816800657196 0)
(-0.10346412459583032017 0.0079770214273785135933 0)
(-0.10389632804633495977 -0.0059424564670066239505 0)
(-0.10025078002468533478 -0.019593312667645513409 0)
(-0.092677213063327434917 -0.031981966179334193889 0)
(-0.081572611054375659956 -0.042066677265288066057 0)
(-0.067615323069822527713 -0.048795846371158010935 0)
(-0.0517963305792255857 -0.051192784373462564551 0)
(-0.035408832829866933312 -0.048493924212666614237 0)
(-0.020014298410209893642 -0.040329202946555335607 0)
(-0.0077236824435820382317 -0.026940722782384456113 0)
(-0.001335486996410615787 -0.0095290691878778342044 0)
(-0.0015777367254630142532 0.013777431761913587482 0)
(-0.0088480340514956457021 0.036880691164046103259 0)
(-0.022527750565721958026 0.053688272041223797371 0)
(-0.039384166108341438217 0.063536299923035735593 0)
(-0.057144365569709087982 0.066620783732323093917 0)
(-0.074255900625975007623 0.063613464957338120009 0)
(-0.089476611869839003943 0.055444909123987029531 0)
(-0.10185366596939693373 0.043161127162131211754 0)
(-0.1107024309626035985 0.027840606698532555097 0)
(-0.11556073587732379471 0.010567038621340139881 0)
(-0.11615699310170901626 -0.0075594508331175208279 0)
(-0.11240051267498835097 -0.025392385164630975475 0)
(-0.10439472400968934085 -0.041709688913590822756 0)
(-0.092473468894705201926 -0.055204514952995005495 0)
(-0.07725889427236028173 -0.064515931893706787714 0)
(-0.059728332828567903823 -0.068318603317772355621 0)
(-0.041243054539077048104 -0.06548317238676162888 0)
(-0.023556083762618539729 -0.055297111444692514937 0)
(-0.0091917654037992589655 -0.037737543042527466053 0)
(-0.0016135689540349032814 -0.013876122725946229627 0)
(-0.0018377899778554808788 0.018700911813580318316 0)
(-0.010154029829197649959 0.048796575710867394482 0)
(-0.025576589354244106539 0.069912245853003457396 0)
(-0.044277644376278735283 0.081730915500648079752 0)
(-0.063652248622297083469 0.084875575587039467362 0)
(-0.08203365393811971884 0.080443352262971945521 0)
(-0.098176917200343230552 0.069742575726077060683 0)
(-0.11118958685950543208 0.05413119912194912231 0)
(-0.12046963168483626472 0.034935172930484204024 0)
(-0.12562442315255581415 0.013435454905297749412 0)
(-0.12641477251954821859 -0.0090985249535661220921 0)
(-0.12273256747506916531 -0.031352103794585660379 0)
(-0.11461274721913043695 -0.051907233276438119463 0)
(-0.10228144796728794175 -0.069205465566376134223 0)
(-0.086241752741426785933 -0.081556906661680625414 0)
(-0.06738546507092839366 -0.087222106328975132494 0)
(-0.047076254701585454332 -0.084588448487727618819 0)
(-0.027219981407987741545 -0.072439049477280831324 0)
(-0.010768529461315238388 -0.050309627182155848557 0)
(-0.0019285070921117976675 -0.019013476114564005492 0)
(-0.0021283598661376423172 0.024328089692553150902 0)
(-0.011515326904651882259 0.062202975917202148193 0)
(-0.02858390909123372306 0.087860806735068019968 0)
(-0.048850707552265636158 0.1015029339790402968 0)
(-0.069391209077177495868 0.10437040404937514282 0)
(-0.088487114451521658998 0.098139746603076977172 0)
(-0.10497335451860528854 0.084595000055052507748 0)
(-0.11810060548998062291 0.065449165605341586005 0)
(-0.12742039888332032382 0.042273931396703628982 0)
(-0.13266228108569785848 0.016513438947565836634 0)
(-0.13365018512438384124 -0.010447825811404836543 0)
(-0.13026473715393002695 -0.037189582477544697037 0)
(-0.12245130592365241484 -0.062155812116674064027 0)
(-0.11027783167647421669 -0.083574349725338975547 0)
(-0.094049009647852163662 -0.099425338199293250563 0)
(-0.074469936014937579416 -0.10749547505688412941 0)
(-0.052800751867608540502 -0.1055558815897951197 0)
(-0.031020200709061158256 -0.091680888226961715359 0)
(-0.012502337255065104973 -0.064721275552630005978 0)
(-0.002301933976295489695 -0.02502462119052098477 0)
(-0.0024702554791345967752 0.030711318610309904648 0)
(-0.012968453796961059224 0.07706949238017336834 0)
(-0.031522848200179191813 0.10730619575613895011 0)
(-0.052909336401723350285 0.12240743831039102574 0)
(-0.073920652826204608088 0.12449555743179310796 0)
(-0.09289347569603385868 0.11601777801823266734 0)
(-0.10886578118457387876 0.099340375103306316484 0)
(-0.12134387084189084127 0.076565035599731004479 0)
(-0.13012313962130872547 0.049488808730277854264 0)
(-0.13512030340239289394 0.019662271588228922431 0)
(-0.13626210917504880116 -0.011494222195875244963 0)
(-0.13343150933155381588 -0.042544964776881639967 0)
(-0.1264682268110535468 -0.071885120027017773703 0)
(-0.11523021751089096432 -0.097600673652641092848 0)
(-0.099730669057193785387 -0.11737317727627281927 0)
(-0.080354287323849457603 -0.12847644716206249593 0)
(-0.05809877757067603149 -0.12792585123312497086 0)
(-0.034871856496008449278 -0.11283243823238665871 0)
(-0.014418125988074910471 -0.081017837742946879898 0)
(-0.0027565732182609115238 -0.032021042275068009597 0)
(-0.0028964095014075044547 0.037933618296272196557 0)
(-0.0145563106169548373 0.093333429417664731664 0)
(-0.034306233396047547402 0.1278686291887697335 0)
(-0.056086223180730941651 0.14374063902147959926 0)
(-0.076500301236299875218 0.14432212340509431581 0)
(-0.094116334847294300103 0.1330631074973653849 0)
(-0.10835083117409816111 0.1130161770008799027 0)
(-0.11910855811677491245 0.086682068968242681484 0)
(-0.12653313079185460333 0.056033828009957167837 0)
(-0.1307995187976059015 0.022643831496968615247 0)
(-0.13198221490539660539 -0.012137192109402112142 0)
(-0.12998845369883249568 -0.04697626043508511956 0)
(-0.12454759981727440976 -0.080342939284716585746 0)
(-0.11526528837234062408 -0.11029630328192464861 0)
(-0.10176782955471573577 -0.13430053918511364319 0)
(-0.083958979072366754504 -0.14912251964827349937 0)
(-0.062353073670604941547 -0.15089835366472253986 0)
(-0.038548396114995761574 -0.13547515333479998034 0)
(-0.016513731332400582996 -0.099164874180682566207 0)
(-0.0033212927517999105143 -0.040134856693095612157 0)
(-0.0034645440796979955558 0.046128165513639726725 0)
(-0.016336234833135579447 0.11085896420569571474 0)
(-0.036743697321189865146 0.14890604678667418437 0)
(-0.057734840224476564885 0.16439849831080879938 0)
(-0.07594069907287517851 0.16246783235590578354 0)
(-0.090442462705891180086 0.1478260686362555254 0)
(-0.10126987962470036797 0.12428571267772985098 0)
(-0.10888870897503095947 0.094709312266219855547 0)
(-0.11389205771969389269 0.061153647932625190831 0)
(-0.11677443374622795136 0.025096881633537914541 0)
(-0.11779820564651048709 -0.012307917220303710854 0)
(-0.11692365502743377881 -0.049970009155185804439 0)
(-0.11378483530859255513 -0.086586477101320169503 0)
(-0.10772046027663140233 -0.12035182561349054564 0)
(-0.097897166359481910258 -0.1486627201361475914 0)
(-0.083572691867115106445 -0.16786567116482378759 0)
(-0.064499375972738151597 -0.17315539365757837142 0)
(-0.041600056179727236405 -0.15879968107814679268 0)
(-0.018745936675199935395 -0.11895866989735608132 0)
(-0.0040379660760149708315 -0.049516531554271915605 0)
(-0.0042743369253554208687 0.055516601446533961339 0)
(-0.018368704618863522515 0.12935726726017887644 0)
(-0.038420110978174708272 0.16932972942094887125 0)
(-0.056702341107206608029 0.182673175633710827 0)
(-0.070327009667661477543 0.17693625183192718264 0)
(-0.07931471884699038688 0.15832464690619071912 0)
(-0.084589336502496725867 0.13139663922183111855 0)
(-0.087326034109279415674 0.099253916382899140536 0)
(-0.088629578968365513303 0.063886405787671976531 0)
(-0.089336508779546533465 0.026532653019319236976 0)
(-0.089914122037907190377 -0.011989502869336263538 0)
(-0.090405550171153800654 -0.050974342899183407163 0)
(-0.090393148704619952216 -0.089512518816094691076 0)
(-0.088987514227441943948 -0.12613622054251302784 0)
(-0.084887621416836547827 -0.15840623865705072415 0)
(-0.076586229350661838566 -0.1824609955117931781 0)
(-0.0627744515381308682 -0.19263130785165122338 0)
(-0.043189120217964373227 -0.18136171566951228562 0)
(-0.020985403020844964339 -0.13987611529142621181 0)
(-0.0049674981529264300786 -0.060334833655854416823 0)
(-0.0054767714766956049344 0.066430866927637777231 0)
(-0.020627588085992385608 0.14816074964231049083 0)
(-0.038380787797748526502 0.18724678234698249879 0)
(-0.050856902687800395468 0.19594088960599145843 0)
(-0.056521353531867921105 0.18493228844319553605 0)
(-0.056908371676154950736 0.16198791306554230496 0)
(-0.054097476111951349476 0.13221241421919546766 0)
(-0.050033043543976980783 0.098691404089446946313 0)
(-0.046293586695620697613 0.063130500398753619518 0)
(-0.04399899162991179058 0.026368532733381258581 0)
(-0.043789715569151690944 -0.011231801850741306853 0)
(-0.04581153659079783419 -0.049462019343494062484 0)
(-0.04967285570571829123 -0.087949528347551986229 0)
(-0.054376914723024583065 -0.12577680193749993243 0)
(-0.058271126803687102458 -0.16097518031948146455 0)
(-0.059101025888454908341 -0.18985383999244578868 0)
(-0.05427839747865677994 -0.20620979978827358448 0)
(-0.04174558566049569458 -0.20067214024221613489 0)
(-0.022877946023827325228 -0.16075120226399322587 0)
(-0.006178131468366617092 -0.072727574670562775139 0)
(-0.0072163105365967280744 0.07923574517651092719 0)
(-0.022646754634303885301 0.16564718602794070712 0)
(-0.034348470040245979162 0.19928325673153585162 0)
(-0.036130270321385792032 0.20021602934756752012 0)
(-0.029302064103032848807 0.18271048042799464817 0)
(-0.017499531135247072683 0.15572467369695583428 0)
(-0.0040259073224020568843 0.124396024079722195 0)
(0.008564828653284116064 0.091374562172660184212 0)
(0.018440269152378625794 0.057816025459501783901 0)
(0.024382986266069016368 0.024023151924915112782 0)
(0.025685540404754153565 -0.010153822369393532971 0)
(0.022104566012769694128 -0.045035564009330508739 0)
(0.013897800507758864552 -0.080849567957464368861 0)
(0.001948472496944921549 -0.11738937275964296536 0)
(-0.012041758548749743191 -0.15348681463007324277 0)
(-0.025356495230767970434 -0.18616772860722452521 0)
(-0.034198621067343712432 -0.20939716601256094797 0)
(-0.034224248898680198483 -0.21255625676016218217 0)
(-0.023437702373985246779 -0.1791200075186264451 0)
(-0.007653760913985433248 -0.086614256971208058999 0)
(-0.0092941302486260913424 0.094506405193830966827 0)
(-0.022413717605020453544 0.17855466611954567968 0)
(-0.020900720307454788427 0.19991703984690450957 0)
(-0.0046992036521112268838 0.1900039652831767012 0)
(0.019993574860601152909 0.16588947188316086057 0)
(0.047348214292385421009 0.13647543999719435881 0)
(0.073307190764143465023 0.10600646963390729371 0)
(0.095256221554030573451 0.076155360651398232297 0)
(0.11157899551361159796 0.047290539440572758323 0)
(0.12129261480183917143 0.019135522038058669358 0)
(0.12380901736461387419 -0.0089101459907165898866 0)
(0.11882913847607151636 -0.037594846154703334684 0)
(0.10636102341386002856 -0.06766310045129624029 0)
(0.086871696490388755629 -0.099635171082337450899 0)
(0.061600271084702569457 -0.13337848536425944701 0)
(0.03304244434966983196 -0.16724816217660110063 0)
(0.0055134841673493018704 -0.19649086180144031966 0)
(-0.014549987246754315234 -0.21077320331690191368 0)
(-0.019949515658449906708 -0.19062866581566495494 0)
(-0.0089175480613292949089 -0.10175469483077373423 0)
(-0.0097715723596790773908 0.11383071198557423442 0)
(-0.013347244789264431017 0.18130366289048180373 0)
(0.014220276824181799641 0.18141366518544241315 0)
(0.057892721101962314745 0.15921989396206528977 0)
(0.10510205726949620186 0.13089463293220934825 0)
(0.14940291326009844108 0.10270794953194750665 0)
(0.18746125121823362103 0.076786322817259056173 0)
(0.21763878841963996136 0.053375819882016874163 0)
(0.23921937329380482673 0.03200900102491920779 0)
(0.25186915964691802827 0.011969847461698728333 0)
(0.2553408138266319849 -0.0075688171778436610579 0)
(0.24935434894827487873 -0.02752108708213063179 0)
(0.23358984766404666811 -0.048875994361717169101 0)
(0.20780225192911042087 -0.07265257340643543893 0)
(0.17214322128238176979 -0.099703196842765559604 0)
(0.12780595573130859588 -0.13011384605906603507 0)
(0.077967443530425367682 -0.16172664221442434318 0)
(0.029209732879147042028 -0.18729979057914830642 0)
(-0.005274311441942793402 -0.18852647048669116114 0)
(-0.0076565237024273230526 -0.11826157119939625928 0)
(0.0011128098436198746723 0.12888653796120785877 0)
(0.024395672875838544241 0.15478048851316075774 0)
(0.097018773049537460063 0.12867282396191945248 0)
(0.17627118759775939338 0.099895897498000277293 0)
(0.24579577089625637143 0.075136399243509774393 0)
(0.30328045693544708472 0.054888187893641963988 0)
(0.3487582052686323264 0.038507406466886703877 0)
(0.38282855599900322829 0.025028038895978117068 0)
(0.40628175337177691029 0.013572464279123293285 0)
(0.41971688595135858701 0.0034092464001621359572 0)
(0.42336370571025710996 -0.0061188769124935074931 0)
(0.41703714498332122851 -0.015679454090454569837 0)
(0.40011309671812117505 -0.026050461418216173948 0)
(0.37152760163906611846 -0.038202865417467507525 0)
(0.3299148440239951241 -0.05336866874996402943 0)
(0.27404211734213140828 -0.072954697979974544864 0)
(0.20339294785779879482 -0.097961201086266463944 0)
(0.11985455752483431535 -0.12745046211337374142 0)
(0.039288944162255284853 -0.15281137655086271532 0)
(0.0056954759950386714407 -0.12542894718296307421 0)
(0.069997312148977336443 0.060665828517590218716 0)
(0.15372263358798810007 0.031273534227534552365 0)
(0.28268482178796061621 0.0083375677959829433417 0)
(0.38994686936209804751 -0.0010225752026029599762 0)
(0.46760154443975004979 -0.004809677184148691137 0)
(0.52445974089715763355 -0.0064340782609075240772 0)
(0.56604652782404396572 -0.0071227633871104277519 0)
(0.59552474666392274383 -0.0073018112807144985865 0)
(0.6150062425209708028 -0.0070737702707110473865 0)
(0.6257798097229477774 -0.0064231218561773117254 0)
(0.62842501622559643337 -0.0053034865230401359928 0)
(0.62287664786315266596 -0.0036759360890947410071 0)
(0.60840280531104595774 -0.0015516912024890337947 0)
(0.58348172405706844046 0.00096427356858873043526 0)
(0.5456010246727800439 0.0035852314390510198541 0)
(0.49102679662318199361 0.0056311516943632180035 0)
(0.41378313651276293905 0.0055278653054296623265 0)
(0.30450851923928390352 -0.00030241863394905995829 0)
(0.16898345148731069854 -0.018892710585167966225 0)
(0.072228478338599078068 -0.045847120218816733717 0)
(0.39775350537921971839 -0.2108075717589423248 0)
(0.55408052840995514199 -0.18974515060053681603 0)
(0.67674940206502576245 -0.13632631075761689199 0)
(0.75171559632025419795 -0.098455893315023981782 0)
(0.79544869478603064117 -0.072249457439320166618 0)
(0.82359832169933644419 -0.053765080128317002672 0)
(0.84264905136318335455 -0.040387099421266114962 0)
(0.85544228756254259149 -0.030112984018635817474 0)
(0.86353029711243267652 -0.021507383676305780185 0)
(0.86776289648369053786 -0.013539631416525605562 0)
(0.8685144607785495463 -0.0053990870162734100335 0)
(0.86577976473147544301 0.0036416821738391421184 0)
(0.85916155781109326828 0.014354373597642331589 0)
(0.84774410213296536032 0.027695473382910944238 0)
(0.82980026979333487702 0.045026787758447588128 0)
(0.80214721429744229031 0.068427117827178057796 0)
(0.75797309428378956131 0.10101922254188594463 0)
(0.6809291165927934264 0.14773618717849129611 0)
(0.54924467098866713854 0.21282460065439906538 0)
(0.36766974177032207827 0.2326412475670193436 0)
)
;

boundaryField
{
    movingWall
    {
        type            fixedValue;
        value           uniform (1 0 0);
    }
    fixedWalls
    {
        type            fixedValue;
        value           uniform (0 0 0);
    }
    frontAndBack
    {
        type            empty;
    }
}


// ************************************************************************* //
