/*--------------------------------*- C++ -*----------------------------------*\
| =========                 |                                                 |
| \\      /  F ield         | OpenFOAM: The Open Source CFD Toolbox           |
|  \\    /   O peration     | Version:  2412                                  |
|   \\  /    A nd           | Website:  www.openfoam.com                      |
|    \\/     M anipulation  |                                                 |
\*---------------------------------------------------------------------------*/
FoamFile
{
    version     2.0;
    format      ascii;
    arch        "LSB;label=32;scalar=64";
    class       volScalarField;
    location    "0.7";
    object      p;
}
// * * * * * * * * * * * * * * * * * * * * * * * * * * * * * * * * * * * * * //

dimensions      [0 2 -2 0 0 0 0];

internalField   nonuniform List<scalar> 
400
(
-0.039614265804442896912
-0.044494901677015967489
-0.050169322818861099289
-0.05417344401585909297
-0.055139362826894855463
-0.05249687601710090884
-0.046253137605143553046
-0.03681450765647134582
-0.024856937782726965663
-0.011241451698268744436
0.0030463066700692378701
0.016950322496129505839
0.029405299226056218209
0.039414560244579753545
0.046152115071531253643
0.04909575377946024527
0.048197219566965612825
0.044077785806102685873
0.038231257195879914113
0.033255266670841894527
-0.034775695513528021019
-0.039791351151060048996
-0.04418073831351495423
-0.046793199101640876869
-0.04700629035936700062
-0.044422129412640877499
-0.039021101728484150484
-0.031096988466582636129
-0.021164922472287399369
-0.0099004760097769865801
0.0019093542118314209364
0.013415849099404327308
0.023765550269505549691
0.03216964609321787405
0.037987610990378721521
0.040828558251015070746
0.040676848291772836619
0.0379708398124370336
0.033435510235986592997
0.028330911833831462499
-0.028779295671206194668
-0.035661849326502889634
-0.040378948165308722884
-0.042708879189196427562
-0.042735206242332873794
-0.040264793827478655153
-0.035333080227096400061
-0.0282172500943104268
-0.019362392374027936198
-0.0093430423310595228648
0.0011690605747317786393
0.01144370286081508592
0.020739970344165085253
0.028364694660145392535
0.033739711378969056144
0.036482116399318517685
0.036514119344972062464
0.03406587910229869065
0.029158255413675015361
0.022136379419597750073
-0.023768534623022793961
-0.033132089527490499181
-0.038941323958458201604
-0.041576160185944871506
-0.041700513537054520463
-0.039308503139486632161
-0.034522708073277043328
-0.02765600689996158823
-0.019141403281242162782
-0.0095114954876598326733
0.00061637254613136247764
0.010565405468463670569
0.019635633228606796247
0.027151072523757386473
0.032513989490366802804
0.035274163696924099032
0.035243977883967173015
0.032459767083127311071
0.026373917935884727548
0.016768609944956339164
-0.021131214301852364879
-0.03299325906895139715
-0.040045320564224148874
-0.043104872723229485654
-0.043323474279643357787
-0.04085854450328131604
-0.035923925425123653943
-0.028886161925422426666
-0.020191374553466312491
-0.010359036668924990338
1.653456756163859128e-05
0.010277622088782897847
0.019727087730659068759
0.027664286556496397312
0.033428566592218919573
0.036463673288236526926
0.036449185808758034766
0.033239238947701296722
0.025804432558483334642
0.013537499244635178147
-0.021878434250037007147
-0.036137422145123464234
-0.044391346834790706977
-0.047804625020572359684
-0.047958845594040205862
-0.045159546909200605491
-0.039712944106545106093
-0.032048992267203618711
-0.022642019096256751909
-0.012016517604954063403
-0.00076417234776204390808
0.01045335523823886191
0.020915229128194885722
0.029865526376688353999
0.036546868253228295687
0.04026377976290156091
0.040538026764978925265
0.037036871481806045436
0.028287477033498951984
0.013380775329119552058
-0.026875809302440704929
-0.04342132778121265968
-0.05273122888874098857
-0.056285633856474837078
-0.05608228390312080397
-0.052576541551212475911
-0.046172893520073268747
-0.037372226815096332153
-0.026685404534677874266
-0.014650685029938383466
-0.0018667120363557792532
0.010989219743724581643
0.023156954465826547901
0.033803764010424369735
0.042046887663607507291
0.047016883464365187562
0.048041691553215623567
0.044571200632346853754
0.034668889991633901337
0.017138959954477037823
-0.03701517497996473921
-0.055737569109794368738
-0.06585640468481297749
-0.069191642579823034453
-0.068192024879988835662
-0.063486165742232411602
-0.055590728563868270495
-0.045084280272643002807
-0.032515531659954508004
-0.018434303500069294107
-0.0034426061405527855208
0.011769074024227383149
0.02639933284484726958
0.039528435142825016357
0.050125668662972355794
0.057110061928533392694
0.059564641229674718248
0.056658797813545019872
0.045906928266523074067
0.025771960538312186501
-0.053348242369151976927
-0.07411793123663518168
-0.084668973635014882495
-0.087244188378932316374
-0.084832912443118010937
-0.078286050575259336082
-0.068255824000308371047
-0.055404346832817925883
-0.040311382807457198096
-0.023523445412642628866
-0.0056269155704512215446
0.012693837711640721527
0.030611194095949853522
0.047123128964940454166
0.061037801435123273386
0.071024187597941199068
0.075853051866294401995
0.074312393676705737477
0.063210841397741232561
0.040541539474723151115
-0.077210248790100771688
-0.099826098113232161757
-0.11022466361307944882
-0.11123907078899220036
-0.10655926801092024947
-0.097337657200107799427
-0.084393982801800410121
-0.068475881817605263602
-0.050175785564627851942
-0.030006001537703677617
-0.0084994953564131274504
0.013705603883276911911
0.035792562166581200211
0.056703307941460508179
0.075088826241734824007
0.089335786926294347143
0.097822542155536346131
0.098813115885462446397
0.088169930121451967064
0.063188987735587981431
-0.11038503194269806695
-0.13447110317877994379
-0.14376962695699491146
-0.14201678059882141825
-0.13386113299388396891
-0.12086896904710781042
-0.10406229691422311245
-0.084264424422960115812
-0.062043344389377856618
-0.037824659541622555892
-0.012026714220907064323
0.014824482940116656335
0.041988993500816959581
0.06841029468010900727
0.092616639225680114089
0.11270153272636070085
0.12656957175136693272
0.13177742895540131562
0.1228998863071880665
0.096155622164346352121
-0.15538300937122681566
-0.1801642971586449038
-0.18676413942681327485
-0.18039252581560072386
-0.16704241487199353311
-0.14883177017638399287
-0.12700554999288507507
-0.10242442215577778064
-0.075563651329748876551
-0.046680048032533706659
-0.015987534798835769528
0.016196358352904536432
0.049310171664787356971
0.082399994679904040029
0.11395583877056324196
0.14181489838752883714
0.16335148921261272159
0.17520641541818293696
0.17021769510070311471
0.14290519088612321785
-0.21598863105312476884
-0.23976452734763806229
-0.2408748946575721972
-0.22701422366350665349
-0.20602585247765262122
-0.18070071626721473379
-0.15247364055731446597
-0.12214430148272904797
-0.089975665736851950793
-0.055933736292114885624
-0.019905202466587952614
0.018130209684223009409
0.057931770694270585953
0.098804972168838864355
0.13936160375840855874
0.17730869518105629723
0.20950905099479641414
0.23150401255827685043
0.23388241615429916642
0.20848376109779540033
-0.29846363813963716627
-0.31737372752672249332
-0.3079847578799124741
-0.28217116965752048197
-0.25011111731647106549
-0.21525247311202652667
-0.17904934067470124059
-0.14202560780425019238
-0.10403083978178384594
-0.064566489172111982131
-0.023034650888224442178
0.021082556711944179517
0.068047377861537208799
0.11764631449627935278
0.168878708662681426
0.21959995011910157792
0.26634805423100171851
0.30352222612014351233
0.31905393078928795392
0.30064600323680595872
-0.41359497956707919064
-0.418840271534230979
-0.38993861551215158734
-0.34536914131748214229
-0.29758684837121568423
-0.25029104778125882413
-0.2044984100274855332
-0.1600365610110877912
-0.11602208695778519487
-0.071259869687603061283
-0.024483165383331187415
0.025499966413769118573
0.079664172589142989711
0.13856070244646948031
0.20197461300776919924
0.26842651644560111546
0.3346386813948617478
0.39419541939368457628
0.43254004026736148081
0.43147910962863261775
-0.57789622169738597002
-0.54958943088036360525
-0.48585604104314933371
-0.41327338260289453453
-0.34429865523170705144
-0.28173278211112734448
-0.2252563577266867012
-0.17328624868537823023
-0.1237607096992355965
-0.074525682496864711912
-0.023473039667257618313
0.031414115450253611572
0.092014903034602343879
0.15995101252872201414
0.23630841930111501359
0.32108762571821808374
0.41217654977394696525
0.50338559408264893502
0.57984938492975879321
0.6173420829618945227
-0.81921154319010514033
-0.71114619776475518353
-0.58783929547435420648
-0.47704075947401847202
-0.38217905815027636285
-0.30290101834321009333
-0.23620271486454319509
-0.17807846487523498746
-0.12478112706505982421
-0.072997555737456643055
-0.019701649868844976765
0.03800871501046398232
0.1030126855686595011
0.17824933126566350206
0.26666880978146784154
0.37083560916597813062
0.4912607898663267636
0.62401298768513657755
0.76180175411726802626
0.88262555693843525173
-1.2384850460971679187
-0.93129148823955976155
-0.69955589818000651903
-0.53581564886556132254
-0.40998330494857887496
-0.31313390392048212618
-0.23746923444401682457
-0.1751790036302739717
-0.12024249573963785576
-0.068046457215338279623
-0.014674475690751486584
0.043660726926837381545
0.11084811136739060322
0.19135678022958688138
0.29068766967765596876
0.415520877184108961
0.57145750774523862425
0.76170911803344432123
1.0073225591744008334
1.3177419443759714746
-2.0740310180668775075
-1.2878080471604105295
-0.84586060302200716254
-0.60490934322430112147
-0.44123724974478129024
-0.32512947878275716418
-0.24072674949963795976
-0.17502292596207372211
-0.11922772397401142086
-0.067271924200374436098
-0.014316284963882125458
0.044052742512619716408
0.11273073891943510838
0.19778886676584844784
0.30783396704854598669
0.45555341308724195404
0.6567561400308554731
0.93536987882945799022
1.3869139809900823401
2.1305348697835313487
-2.6363913465121560087
-1.2816163094176231674
-0.73069711618413601961
-0.49250823870919879788
-0.34760672467308983968
-0.25163688639814607573
-0.18527188501426553047
-0.13549914948247676616
-0.094311751113875727515
-0.056474717436316129726
-0.018001211753408592059
0.024699050079212712949
0.075519807250796572307
0.13955566756412496332
0.22460954895258189445
0.34401654727270836176
0.52059699386420610345
0.80325675705753341038
1.375299273382572407
2.6013833925753542253
)
;

boundaryField
{
    movingWall
    {
        type            fixedValue;
        value           uniform 0;
    }
    fixedWalls
    {
        type            zeroGradient;
    }
    frontAndBack
    {
        type            empty;
    }
}


// ************************************************************************* //
