/*--------------------------------*- C++ -*----------------------------------*\
| =========                 |                                                 |
| \\      /  F ield         | OpenFOAM: The Open Source CFD Toolbox           |
|  \\    /   O peration     | Version:  2412                                  |
|   \\  /    A nd           | Website:  www.openfoam.com                      |
|    \\/     M anipulation  |                                                 |
\*---------------------------------------------------------------------------*/
FoamFile
{
    version     2.0;
    format      ascii;
    arch        "LSB;label=32;scalar=64";
    class       surfaceScalarField;
    location    "0.7";
    object      phi;
}
// * * * * * * * * * * * * * * * * * * * * * * * * * * * * * * * * * * * * * //

dimensions      [0 3 -1 0 0 0 0];

oriented        oriented;

internalField   nonuniform List<scalar> 
760
(
1.0077384840783915189e-08
-1.0077382599804620973e-08
-2.3700278182603372441e-08
3.3777623172149773853e-08
-1.0347586537489326817e-07
7.9775699516971199408e-08
-2.1461075050534942007e-07
1.1113501798899223246e-07
-3.4051609891647976388e-07
1.2590538159651992942e-07
-4.6594040718445825506e-07
1.2542417923503413259e-07
-5.7801150988118567986e-07
1.1207088030610101754e-07
-6.6656397302380656937e-07
8.8552310555511295971e-08
-7.2413405067503140659e-07
5.7570129832596074791e-08
-7.4591336696745278368e-07
2.1779570310336247914e-08
-7.297920244873617496e-07
-1.6121035111306747179e-08
-6.7651547453108480613e-07
-5.3276382148740219112e-08
-5.899230234215510778e-07
-8.6592527892456681865e-08
-4.7719541100368251657e-07
-1.1272788192884173894e-07
-3.4899837273649142751e-07
-1.2819733012474116477e-07
-2.1933854393622521165e-07
-1.2965996753414622636e-07
-1.048483126848921076e-07
-1.1449014752462011825e-07
-2.3202186161836766486e-08
-8.164589665335450489e-08
1.0720195945992337858e-08
-3.3922170769488045962e-08
1.0720251164694131554e-08
-3.2183639608088711147e-08
2.2106329996416698781e-08
-1.5928559759043806195e-07
1.6087942836998286469e-07
-3.7444730242933455914e-07
2.949373089165177547e-07
-6.5088540393561912119e-07
3.8757310035859530699e-07
-9.5569262200471345915e-07
4.307126915261238654e-07
-1.2563200307484677125e-06
4.2605175587638893243e-07
-1.5238856336514375913e-06
3.7963663158551262147e-07
-1.7347853422160760691e-06
2.9945206220315980707e-07
-1.8713824670627549983e-06
1.9416717741257987641e-07
-1.922335359079828878e-06
7.2732326296629439688e-08
-1.8828779641972330072e-06
-5.5578532955869435491e-08
-1.7551673913223988699e-06
-1.8098696341689447865e-07
-1.548665743298266373e-06
-2.9309409189475997467e-07
-1.2803976739837008464e-06
-3.80995831440858363e-07
-9.7480987812018318811e-07
-4.3378504160173382638e-07
-6.6282486769405543699e-07
-4.4164497180488163225e-07
-3.7954396586461058079e-07
-3.977711165123564318e-07
-1.5997758343312111355e-07
-3.0121237838406753431e-07
-3.1611988541385431005e-08
-1.6228786515873467946e-07
-2.08915702430155869e-08
-8.049898948423461252e-08
1.0260541546949213281e-07
-3.0489170294968514048e-07
3.8527211608268514055e-07
-6.4504011384500292418e-07
6.3508570950726643592e-07
-1.0612608349082129951e-06
8.0379383596710856414e-07
-1.5090394631624820713e-06
8.7849136682757835303e-07
-1.9448025609778779048e-06
8.6181492054193344566e-07
-2.3296645372069753704e-06
7.6449864879032177774e-07
-2.6315841980841793968e-06
6.0137170485220157363e-07
-2.8264912271310957168e-06
3.8907414347674600562e-07
-2.8988997361480755401e-06
1.4514078166284239244e-07
-2.8423629873842647337e-06
-1.1211527507971724856e-07
-2.6599295647874880426e-06
-3.634203101144845172e-07
-2.3645779600585281502e-06
-5.8844558987502478408e-07
-1.9794385827610438962e-06
-7.6613512890541650514e-07
-1.5374579890656264866e-06
-8.7576562278459705064e-07
-1.0800298616199815727e-06
-8.9907315716244178867e-07
-6.5406211561058604678e-07
-8.2373896291565260469e-07
-3.0705864034871254685e-07
-6.4821595268251516429e-07
-8.0071100837028966932e-08
-3.8927548332890636274e-07
-1.0096251285091397825e-07
-1.2313449995270325178e-07
2.2573991977749768897e-07
-4.3920768178140523693e-07
7.0134537175838142718e-07
-8.9597271295035835353e-07
1.0918507679732128011e-06
-1.4380500447902731539e-06
1.3458711934504227998e-06
-2.0096733874139608035e-06
1.4501147407592688941e-06
-2.5586372153030611384e-06
1.4107787914193104711e-06
-3.0392834850695176656e-06
1.2451449469048183153e-06
-3.4143409106116687809e-06
9.7642911479135686738e-07
-3.6559234962785202213e-06
6.3065667297866208742e-07
-3.7460873066045972126e-06
2.3530453655206196808e-07
-3.6772686441395873274e-06
-1.8093394361807261191e-07
-3.4527723568797613378e-06
-5.8791653604746727032e-07
-3.0872980885895403478e-06
-9.5391975518455097544e-07
-2.6073117563680234105e-06
-1.2461213669534620243e-06
-2.0509009465244899661e-06
-1.432176390285541938e-06
-1.4666327322858096773e-06
-1.4833413957897548568e-06
-9.1093580731116264839e-07
-1.379435965387035185e-06
-4.4376755187353609811e-07
-1.1153842978978954188e-06
-1.229962093694863484e-07
-7.1004688621465881053e-07
-2.239586793098579672e-07
-1.6074378159007136747e-07
3.8648357389561139312e-07
-5.6184991627692840072e-07
1.1024516499459649941e-06
-1.1275498002138635612e-06
1.6575506983673199739e-06
-1.785479646732458358e-06
2.0038010653245721547e-06
-2.4683263320977094423e-06
2.1329614420100367574e-06
-3.1162825781560940215e-06
2.058735063252065261e-06
-3.6788105930971602165e-06
1.8076729946577629534e-06
-4.115560559748060328e-06
1.4131790987973424636e-06
-4.3967088888383337375e-06
9.1180498655671460816e-07
-4.5030715526019315367e-06
3.4166716060509173314e-07
-4.4262960455376688042e-06
-2.5770948375077662618e-07
-4.1693048627153194295e-06
-8.4490771616707882364e-07
-3.7469956857743933005e-06
-1.3762288871469724139e-06
-3.1870201158737415438e-06
-1.8060968671466126385e-06
-2.5302785168824115414e-06
-2.0889179223052020906e-06
-1.8306220126526985054e-06
-2.1829978586059395889e-06
-1.1532272308975264022e-06
-2.0568307422959307269e-06
-5.7132696802098548708e-07
-1.6972845807193200784e-06
-1.6160398384377956013e-07
-1.119769878289680247e-06
-3.8556275453790203018e-07
-1.9543096500422540092e-07
5.8191433385373699694e-07
-6.7649238523483672208e-07
1.5835131943242022464e-06
-1.3445586583066777743e-06
2.3256170009928531223e-06
-2.1097666688998237546e-06
2.769009092721869462e-06
-2.8932050596955859191e-06
2.9163998508006441565e-06
-3.6283209947963318644e-06
2.7938510255809914983e-06
-4.2612554571901223289e-06
2.4406074975003465585e-06
-4.7503984017764275599e-06
1.9023220842114817265e-06
-5.0656072866671076946e-06
1.2270138896946014796e-06
-5.1875104345759962091e-06
4.6357029230783518721e-07
-5.107220633586357481e-06
-3.3799932340730925427e-07
-4.826650373280626424e-06
-1.1254780101628309913e-06
-4.359463273209271781e-06
-1.8434159928121588986e-06
-3.7325137236513087942e-06
-2.4330463878338252304e-06
-2.9874146731852208518e-06
-2.8340169174197579256e-06
-2.1816531162228878046e-06
-2.9887593468891480539e-06
-1.3885221321206547082e-06
-2.8499616568485936679e-06
-6.9519818482652713483e-07
-2.3906084673947939453e-06
-1.9867657343590953089e-07
-1.6162914294503511374e-06
-5.8423946758352954178e-07
-2.2914915195840973419e-07
8.110633424627562919e-07
-7.8701651714288570388e-07
2.1413805830470288827e-06
-1.5515162959588211983e-06
3.0901167610889130373e-06
-2.4148483264886388187e-06
3.6323411128822008983e-06
-3.2868952162530128061e-06
3.7884467569293651891e-06
-4.0956672893171933506e-06
3.6026231314554531935e-06
-4.7859015662949649933e-06
3.1308418220308532155e-06
-5.3168036614443578341e-06
2.4332242350874288181e-06
-5.6597122306231332318e-06
1.5699225036725276352e-06
-5.7962499917471248343e-06
6.0010806743056942006e-07
-5.7173338238745071639e-06
-4.1691551120088812945e-07
-5.4232618591665174117e-06
-1.4195500115965239749e-06
-4.924955478132995109e-06
-2.3417224031962372208e-06
-4.2462653518195294655e-06
-3.1117365200611470097e-06
-3.4270098474512671863e-06
-3.6532723995476090929e-06
-2.5260835772202364847e-06
-3.8896855661307350361e-06
-1.6236092762246926273e-06
-3.7524358773437631094e-06
-8.2087585339182189779e-07
-3.1933417924023389243e-06
-2.3682725009463095827e-07
-2.2003399357224611324e-06
-8.2106679131721954205e-07
-2.634882657633618599e-07
1.0745516491007631418e-06
-8.9635455396709362219e-07
2.774246778517680824e-06
-1.7506561552729492827e-06
3.9444182996296236004e-06
-2.6999640738378159542e-06
4.5816489889606841585e-06
-3.6439552058575986217e-06
4.7324378881876804837e-06
-4.5074213774582204425e-06
4.4660893283354874514e-06
-5.2364945621671866609e-06
3.859915051554890176e-06
-5.7939884923596460592e-06
2.9907182258326265601e-06
-6.1550555166076120371e-06
1.9309895907974293776e-06
-6.3038685903225642225e-06
7.4892118552963246607e-07
-6.2317197267569414293e-06
-4.8906436219573968639e-07
-5.9367572696029328322e-06
-1.7145124834512298287e-06
-5.4254911269237607657e-06
-2.8529885704421294732e-06
-4.7160791568745435488e-06
-3.8211485080617994462e-06
-3.8431686531644222303e-06
-4.5261829063143157171e-06
-2.8636211382488038723e-06
-4.8692330638986859495e-06
-1.861795274310563483e-06
-4.7542616950366113225e-06
-9.5237615823647274743e-07
-4.1027608356964138041e-06
-2.7819333443159934071e-07
-2.8745226843864230836e-06
-1.0992600835226228699e-06
-2.9974630052934243328e-07
1.3742981804917012295e-06
-1.006136120785075388e-06
3.4806364534470840689e-06
-1.9408306462316737911e-06
4.8791127629829884386e-06
-2.9578382357680053802e-06
5.5986565280338585859e-06
-3.9486099681963070143e-06
5.7232095968709897698e-06
-4.8383455413442653597e-06
5.355824902208642372e-06
-5.5787031244000142235e-06
4.6002726598469590992e-06
-6.1399478143068574683e-06
3.5519629658873498686e-06
-6.5041351560633624691e-06
2.2951769994390804479e-06
-6.6600723937906350573e-06
9.0485848816874525383e-07
-6.6003501121664104502e-06
-5.4878659992954108047e-07
-6.3205959893138645122e-06
-1.9942665899479500848e-06
-5.821121135716434188e-06
-3.3524634266473362257e-06
-5.1111442394309620368e-06
-4.5311254121308216741e-06
-4.2156216109588914457e-06
-5.4217055399575910608e-06
-3.1842044258323498455e-06
-5.9006502503873412322e-06
-2.100865601081117085e-06
-5.8376005144246385605e-06
-1.0913848901172590853e-06
-5.112241530666889826e-06
-3.2437219277588090528e-07
-3.6415353670834783376e-06
-1.423632162746954103e-06
-3.3924127149179359307e-07
1.7135397429450830928e-06
-1.1167456255089594954e-06
4.2581407100015090087e-06
-2.1166479734844931548e-06
5.8790151058615214549e-06
-3.1726826911799607515e-06
6.6546912301726275938e-06
-4.1718271488108614963e-06
6.7223540242492295832e-06
-5.0454071012494379006e-06
6.2294048282136049404e-06
-5.7564875611978083968e-06
5.3113531139239826551e-06
-6.2878528336659447937e-06
4.0833282628912300331e-06
-6.6323410483741868028e-06
2.6396652676555702638e-06
-6.7860095432204592885e-06
1.0585270511983356095e-06
-6.7440809301793139185e-06
-5.9071515074718186527e-07
-6.4996039823765559468e-06
-2.2387434960357859481e-06
-6.0449999172137074209e-06
-3.8070674708511968461e-06
-5.3769290947402703822e-06
-5.199196224127766433e-06
-4.5049826310481752689e-06
-6.2936519952970146601e-06
-3.4642900200553919579e-06
-6.9413428574791155752e-06
-2.3308989742633047224e-06
-6.9709915696277853064e-06
-1.2365650836990929442e-06
-6.2065754438563994051e-06
-3.7650782397029558261e-07
-4.5015926607557061448e-06
-1.8001398912160640225e-06
-3.8380251158856405817e-07
2.0973424225339527981e-06
-1.22731619190365589e-06
5.1016544082604410332e-06
-2.2669236951295413372e-06
6.9186226862048824985e-06
-3.3168961615760767482e-06
7.7046637471901817655e-06
-4.2667416774827541905e-06
7.6721995346315395088e-06
-5.0626504356754568122e-06
7.0253135523121082695e-06
-5.6870281824363683854e-06
5.9357308292965747199e-06
-6.1413501506622306735e-06
4.5376502248486876755e-06
-6.4336153406348273358e-06
2.931930485257842529e-06
-6.5700277553058125421e-06
1.1949395208560332919e-06
-6.5501154880804372558e-06
-6.1062735368463326826e-07
-6.364785574977458238e-06
-2.4240733545821457509e-06
-5.9974035424404129749e-06
-4.1744494671519773846e-06
-5.4286403360657210668e-06
-5.7679594075027533427e-06
-4.6463283209511656055e-06
-7.0759639906261230708e-06
-3.6615475315240755418e-06
-7.9261236290753929934e-06
-2.5309741037729893164e-06
-8.1015649938280111611e-06
-1.3824455071336873176e-06
-7.3551040588441735766e-06
-4.3540797232734001962e-07
-5.4486302305645521052e-06
-2.2355478433315490651e-06
-4.3641769891230700061e-07
2.533760057973846108e-06
-1.3349388224102829897e-06
6.0001756532198544352e-06
-2.3709614172246758615e-06
7.9546454104011931474e-06
-3.3446582325864805629e-06
8.6783606715326015604e-06
-4.1608158230340129782e-06
8.4883571679122833518e-06
-4.7932961941869468205e-06
7.6577939135991733425e-06
-5.2537309593597047763e-06
6.3961655608375142694e-06
-5.5688610940545775718e-06
4.8527803320318422528e-06
-5.7658948022245498359e-06
3.1289641930516186621e-06
-5.8637107455106742424e-06
1.2927554964568026023e-06
-5.8678654093452450801e-06
-6.064726354504677715e-07
-5.7682272720019870667e-06
-2.523711434847921748e-06
-5.5391335832213123419e-06
-4.4035431120736943705e-06
-5.1431052041434303861e-06
-6.1639877589290727877e-06
-4.5402926491342101282e-06
-7.6787765253352881873e-06
-3.7066545028092484358e-06
-8.7597617533566822225e-06
-2.663425626731095931e-06
-9.1447938488062396423e-06
-1.5170865100532112784e-06
-8.5014431638185849387e-06
-5.0158089318550469437e-07
-6.4641358449212936798e-06
-2.7371287805966379584e-06
-5.018252014793966631e-07
3.0355850105749522438e-06
-1.4314465815338214006e-06
6.9297971785438788509e-06
-2.3897748257930024333e-06
8.9129737660970945e-06
-3.1792891478258172191e-06
9.4678751120025105508e-06
-3.7422156411785687579e-06
9.0512837479222347256e-06
-4.0975415689911583162e-06
8.0131198796325466232e-06
-4.296785764272798518e-06
6.5954097503267569309e-06
-4.3971797858421708249e-06
4.9531743262544543138e-06
-4.4472307805179655342e-06
3.1790151673314643595e-06
-4.4794694631992983092e-06
1.324994185830500342e-06
-4.5066515219562716001e-06
-5.7929054015572922542e-07
-4.5194504322425879786e-06
-2.5109124717847586542e-06
-4.4852566383912967202e-06
-4.4377368568088577635e-06
-4.3492526427474819723e-06
-6.2999917221841323311e-06
-4.0407913601699295506e-06
-7.9872377908260566221e-06
-3.4902897541325633653e-06
-9.3102633450863947674e-06
-2.6633457514040491436e-06
-9.9717378285074787902e-06
-1.6168810391560957516e-06
-9.5479078438148840907e-06
-5.7479919998027529768e-07
-7.5062176457797579615e-06
-3.3119280361969724897e-06
-5.8572011960593453607e-07
3.6213048669511392562e-06
-1.4933949479222375675e-06
7.8374720907540838989e-06
-2.2461878870401319808e-06
9.6657667349007624568e-06
-2.6888636235541938228e-06
9.9105509135433459637e-06
-2.8367024613399861247e-06
9.1991226798509050978e-06
-2.7743430298167692829e-06
7.9507605317956216932e-06
-2.6011416261279599762e-06
6.4222083896202974135e-06
-2.4052976055821570287e-06
4.7573303052975257141e-06
-2.2541632872744775013e-06
3.0278808266354305222e-06
-2.1916479021711347755e-06
1.2624787854624399663e-06
-2.2374055037838588091e-06
-5.3353292727011993548e-07
-2.3853585521323392182e-06
-2.3629593849605261705e-06
-2.6009331524431023464e-06
-4.2221622064402008107e-06
-2.8179527859486198274e-06
-6.082972047173304597e-06
-2.9384349234587304385e-06
-7.8667556311891173587e-06
-2.8422993839137214054e-06
-9.406398876390604163e-06
-2.4188400535578520407e-06
-1.0395197147459034196e-05
-1.6344698101025243878e-06
-1.033227806131280936e-05
-6.5155888592334296375e-07
-8.4891285290576153988e-06
-3.963486947390846009e-06
-6.8763291729453957798e-07
4.3089376807129584759e-06
-1.4533297958795790257e-06
8.6031689667464261164e-06
-1.7807259941964438926e-06
9.9931628705323929029e-06
-1.6405453209902489338e-06
9.7703702161897862432e-06
-1.170217403462161884e-06
8.7287948137199075963e-06
-5.3610550442568911026e-07
7.3166487267993851254e-06
1.1691936010930486231e-07
5.7691836121373582722e-06
6.7930459228839463728e-07
4.1949451199957102471e-06
1.0750314076566449088e-06
2.6321540146395206986e-06
1.2561133639584779319e-06
1.0813968098458768538e-06
1.1987802634256918059e-06
-4.7619984027033177391e-07
9.032923832610282368e-07
-2.0674714934454155969e-06
3.979675802167482326e-07
-3.716837367030335909e-06
-2.5279796801402006416e-07
-5.4322064536340395908e-06
-9.3859139360078205954e-07
-7.1809621709712132033e-06
-1.4978006487390734099e-06
-8.8471896061732880782e-06
-1.7325726934818555342e-06
-1.016042509920382815e-05
-1.4695438614308893053e-06
-1.0595306887890492629e-05
-7.1553768709942280909e-07
-9.243134689638317689e-06
-4.6790246262869728349e-06
-7.7368643051859328329e-07
5.0826242187807177002e-06
-1.123874810363957189e-06
8.9533573076148230359e-06
-6.587601188645153982e-07
9.5280480777590701596e-06
3.7897516156442780813e-07
8.7326348418480143505e-06
1.6854005682543253878e-06
7.4223693841774730754e-06
3.0205749273632798649e-06
5.9814744189224650271e-06
4.2193453421524616264e-06
4.5704132887644178309e-06
5.1765463183959065866e-06
3.2377442308117646907e-06
5.8275653331158133738e-06
1.9811350511866468446e-06
6.1332590793809485194e-06
7.7570307293091765498e-07
6.0714394077260888408e-06
-4.1438018429232903108e-07
5.6347158119453432889e-06
-1.6307479116052102887e-06
4.8347239041873754976e-06
-2.916845451983893552e-06
3.713707154116575476e-06
-4.3111896735351338484e-06
2.3643119019792872295e-06
-5.8315668804525717397e-06
9.5538496673241931511e-07
-7.4382626426978554212e-06
-2.4812760454611875172e-07
-8.9569125186023391521e-06
-8.9975528911620081233e-07
-9.943679209314379292e-06
-7.0875189478914754143e-07
-9.4341380987510911605e-06
-5.3877765021649681344e-06
-6.8892754910067343103e-07
5.7715519841386815606e-06
-1.6459220520089299934e-08
8.2808889766248710505e-06
1.7979869675390278698e-06
7.7136018312277693926e-06
4.0762502036010843685e-06
6.4543715099584248466e-06
6.3684829746131734599e-06
5.1301365327515691356e-06
8.4293633986978049337e-06
3.9205939689669333504e-06
1.0135164427530327953e-05
2.864612297560178987e-06
1.1428695245134022591e-05
1.9442134930207468895e-06
1.2284188805056674973e-05
1.125641576463183992e-06
1.2687125418142416441e-05
3.7276651843683875728e-07
1.262421641187324915e-05
-3.5147115857168204617e-07
1.2080434518653845541e-05
-1.0869660272818254763e-06
1.1041455484891301387e-05
-1.8778664321232348704e-06
9.5044141620992429606e-06
-2.7741483494921678478e-06
7.5009663939677988925e-06
-3.8281190909789568837e-06
5.1392660341305035316e-06
-5.0765622531341285118e-06
2.6687478163919583391e-06
-6.4863942806417696109e-06
5.6463519219409657576e-07
-7.8395665851223917021e-06
-4.458622516082678157e-07
-8.4236406768427942614e-06
-5.8336387430438711954e-06
1.8387712720304648656e-07
5.5876750179323259827e-06
3.0471849713459138884e-06
5.4175811886830536863e-06
6.8795797794082383064e-06
3.881207054119772753e-06
1.056621722548618152e-05
2.7677340377797631805e-06
1.3739960757345008805e-05
1.9563929273524269976e-06
1.6314319379521608725e-05
1.3462352673386067675e-06
1.8300487651790341609e-05
8.7844398275613319816e-07
1.9736598532512827019e-05
5.0810262728630725152e-07
2.0657879228701992596e-05
2.0436094357666232448e-07
2.1084813310796060538e-05
-5.4167482391596499604e-08
2.1017983942697605074e-05
-2.8464172410197010775e-07
2.0437547561207402408e-05
-5.065296141986288021e-07
1.9301265549635012592e-05
-7.4158442013309295686e-07
1.7547929952912093938e-05
-1.0208127640586855804e-06
1.5108837695631924827e-05
-1.3890268357648078573e-06
1.1941761426592468418e-05
-1.9094859693342086249e-06
8.114626322524860335e-06
-2.6592591545974410895e-06
3.9936385616227629619e-06
-3.7185788113422853434e-06
6.6741907730590956576e-07
-5.0974212002816879325e-06
-5.1662196635223462093e-06
4.1259293722546977178e-06
1.4617456679637368043e-06
1.1133584015783836395e-05
-1.5900733805849840637e-06
1.7009017835655006889e-05
-1.9942266715165725505e-06
2.1485469495903155169e-05
-1.7087175641602976185e-06
2.4826831551575633255e-05
-1.3849691382810643153e-06
2.7283690620931840893e-05
-1.1106238690793575449e-06
2.9053912448826152773e-05
-8.9177792835630510748e-07
3.0273810183198635932e-05
-7.1179516133933424035e-07
3.1028379052546493715e-05
-5.502079250353676408e-07
3.1363244320225513724e-05
-3.8903269663343375971e-07
3.1291422370447396443e-05
-2.1281969581885030946e-07
3.0792650719507201238e-05
-7.7578943060176464187e-09
2.9811631965964751007e-05
2.3943436981099533526e-07
2.8247810681774171258e-05
5.4300852397236632685e-07
2.5941132273148923828e-05
9.1765156242812503744e-07
2.2658170954672092321e-05
1.3734753456746000044e-06
1.8106739674581471525e-05
1.8921721368879869916e-06
1.2023292758877439661e-05
2.3648681221262343689e-06
4.6827299867781897153e-06
2.2431415816668750996e-06
-4.8348967471659403467e-07
2.143481481865404869e-05
3.1374939287743485686e-05
3.5983776940965581039e-05
3.8734329709188396608e-05
4.0500395368023532617e-05
4.167264184065355275e-05
4.2462582677701079408e-05
4.2981221588861071026e-05
4.3287725954941730063e-05
4.341186037736279431e-05
4.3362663751559509526e-05
4.3130323232946161851e-05
4.2682784915859558312e-05
4.1955638949349240998e-05
4.0827581047947319722e-05
3.9064690696022319157e-05
3.6203623536801793706e-05
3.1217026562175001958e-05
2.0812014955917011526e-05
)
;

boundaryField
{
    movingWall
    {
        type            calculated;
        value           nonuniform List<scalar> 
20
(
-1.9973069206210349339e-05
-1.1530197845738340693e-05
-6.6030642763076321437e-06
-4.4592702692489491869e-06
-3.1510347519451370928e-06
-2.2828703338650324472e-06
-1.6817187928075695886e-06
-1.2304341151369856477e-06
-8.5671232277929308092e-07
-5.1316712166266190029e-07
-1.6362304093719290264e-07
2.245826710698942912e-07
6.8697273099774691577e-07
1.2701545165845953512e-06
2.0457094698814895051e-06
3.1363656932177921947e-06
4.7532392930874093476e-06
7.3514650996885433091e-06
1.2648153193767827974e-05
2.0328525281581800641e-05
)
;
    }
    fixedWalls
    {
        type            calculated;
        value           uniform 0;
    }
    frontAndBack
    {
        type            empty;
    }
}


// ************************************************************************* //
