/*--------------------------------*- C++ -*----------------------------------*\
| =========                 |                                                 |
| \\      /  F ield         | OpenFOAM: The Open Source CFD Toolbox           |
|  \\    /   O peration     | Version:  2412                                  |
|   \\  /    A nd           | Website:  www.openfoam.com                      |
|    \\/     M anipulation  |                                                 |
\*---------------------------------------------------------------------------*/
FoamFile
{
    version     2.0;
    format      ascii;
    arch        "LSB;label=32;scalar=64";
    class       volVectorField;
    location    "0.7";
    object      U;
}
// * * * * * * * * * * * * * * * * * * * * * * * * * * * * * * * * * * * * * //

dimensions      [0 1 -1 0 0 0 0];

internalField   nonuniform List<vector> 
400
(
(0.00019468961589030539527 -0.00019233625679888419614 0)
(4.8677816643636891234e-05 0.00012522251867221994822 0)
(-0.0011183324739031145437 0.00050130702959176880358 0)
(-0.0030889848947935373558 0.00075823626633569809335 0)
(-0.0055239460475361929284 0.00088080008732232476908 0)
(-0.0080963401311346036571 0.00088522573075197705933 0)
(-0.010520960009684322128 0.00079375627534111715608 0)
(-0.012565707366380032828 0.00062874942974227286153 0)
(-0.014053807214679733817 0.00041061531363256129892 0)
(-0.014862281262513774363 0.00015820888312920714696 0)
(-0.014921462469816208427 -0.00010983464636671289873 0)
(-0.014216963729717370726 -0.00037372466100497295401 0)
(-0.012793830587636679727 -0.00061146879741062862453 0)
(-0.010761797721659388527 -0.00079838489811163699909 0)
(-0.0082999113644302707771 -0.00090741032311839162246 0)
(-0.0056576104912588387127 -0.00091081644383147163102 0)
(-0.0031469840085202789061 -0.00078432636975412316476 0)
(-0.0011215065073032397594 -0.00051436319173043100559 0)
(6.5305701558986345781e-05 -0.00012359261550951960561 0)
(0.00020326591046520181994 0.00019953109774797141715 0)
(-0.00010068959543670699111 -6.959127821026318177e-05 0)
(-0.0014718587533918943769 0.0014932335058592603565 0)
(-0.0049713799764830287134 0.0031211017378692004591 0)
(-0.010045402369045238963 0.0042558305451828809876 0)
(-0.016014878982845631022 0.0047961410036729476558 0)
(-0.022214052215633724174 0.0047728951060952221064 0)
(-0.028020388505159900261 0.0042654288887148100046 0)
(-0.032902842685392189037 0.0033711504909188171573 0)
(-0.036446350367234196799 0.0021912666147448807419 0)
(-0.038359764806474780374 0.00082750634274671999117 0)
(-0.038480609436692569947 -0.00061586531467707524966 0)
(-0.036781173272487650838 -0.0020287046915052763148 0)
(-0.033376226476565212797 -0.0032926460684489849626 0)
(-0.028530373746290423054 -0.0042815109777395660498 0)
(-0.022661103918762762199 -0.0048661973832594728265 0)
(-0.016330313197481554494 -0.0049266963406461774383 0)
(-0.010210074999985066513 -0.0043747784179613644767 0)
(-0.0050169778668228493315 -0.0031897202060159430756 0)
(-0.0014607582532208983946 -0.0015018449708484910184 0)
(-8.9730147208078324438e-05 8.9716331533763976451e-05 0)
(-0.00047998946219542028453 0.0010597493199991569676 0)
(-0.0032139451415015545671 0.0050059696478763678756 0)
(-0.0089955776658827216186 0.0086874751595544044691 0)
(-0.016800804032983968767 0.011225577355668710233 0)
(-0.025661700173640451805 0.012393278392678924726 0)
(-0.034697664120480642413 0.01222441711884577828 0)
(-0.043077115282401337581 0.01087840255802295826 0)
(-0.050081649155736970846 0.0085744870407424358949 0)
(-0.055145811273461305124 0.0055561793772140799161 0)
(-0.057871855348887064896 0.0020781836551152801061 0)
(-0.058038497667257112067 -0.0015942194343945704626 0)
(-0.055609717285015999866 -0.005181508116136900044 0)
(-0.050744145104875459928 -0.0083878291541743307119 0)
(-0.043802840323774794307 -0.010905305589616366702 0)
(-0.035350772557872257862 -0.012429325394885816503 0)
(-0.02614268483599341969 -0.012690228430717730157 0)
(-0.017072893387570314827 -0.011507007393519171762 0)
(-0.0090908945776749586209 -0.0088648286405653455022 0)
(-0.0032130170196570913624 -0.0050504997495944723915 0)
(-0.00046751713754382737782 -0.0010289424890607651135 0)
(-0.0008050467423900604675 0.003113740310732060132 0)
(-0.0048027956530800886004 0.010454344006943457057 0)
(-0.012741770042973554755 0.016727043345432970889 0)
(-0.023055649164092681391 0.020908041994220801646 0)
(-0.034466719926991726264 0.022710210404861531225 0)
(-0.04591255489778012927 0.022204767595673351177 0)
(-0.056413380075847507911 0.019659921935088160022 0)
(-0.065130897906274007325 0.015447442836842595684 0)
(-0.071409452026591643814 0.009987377315601928679 0)
(-0.074788904415903231793 0.0037245221681848246498 0)
(-0.075012288871127139056 -0.0028757255368975069044 0)
(-0.072034710064683565856 -0.0093238539473021603277 0)
(-0.066033937153098173911 -0.015104663879757392747 0)
(-0.057420630106000167259 -0.019686079977365100735 0)
(-0.046843702925595219477 -0.02254619272920618811 0)
(-0.035180609227636459868 -0.023226391455777435635 0)
(-0.023486970640935626864 -0.021416476914136898385 0)
(-0.012916239275781320889 -0.017069230745619175249 0)
(-0.0048208500199729050623 -0.010565624266501786807 0)
(-0.00079121174904131248012 -0.0030749467311057673488 0)
(-0.0010813493572055027023 0.0059663832398299566917 0)
(-0.006231778474658299094 0.017655210660364944325 0)
(-0.01619114041231497006 0.026990756881946690454 0)
(-0.028838892897639478025 0.032958653573937748971 0)
(-0.042570453674656325016 0.035316550727034927426 0)
(-0.056149234532554964661 0.034241673609287329172 0)
(-0.068479160639969324786 0.030156889695201083423 0)
(-0.078645382092669871565 0.023618551667437957114 0)
(-0.08594457454286842657 0.015246995943663563255 0)
(-0.089886636989840104639 0.0056958357195386012314 0)
(-0.090195118250166461671 -0.0043532768890509688023 0)
(-0.086813153026008268998 -0.014184870865958187566 0)
(-0.079915252306341527655 -0.023045932057491957251 0)
(-0.069923286087869393479 -0.030156348224352893389 0)
(-0.057522754477338330914 -0.034744826117164541446 0)
(-0.043668360972434601408 -0.036120584546220628475 0)
(-0.029547403245145462819 -0.033786478167067951484 0)
(-0.016517359342077844037 -0.027585673382875718768 0)
(-0.0062977725880799251268 -0.017888594461079938835 0)
(-0.0010710146998627835188 -0.0059302624295475368094 0)
(-0.0013320988283114427488 0.0095362286453388681734 0)
(-0.0075605765444903671318 0.026496394018917634322 0)
(-0.019426367576749186544 0.039358255533019192995 0)
(-0.034257151923914139213 0.047231524620571709028 0)
(-0.050114418365643703668 0.050031633770448988296 0)
(-0.065594645197900716682 0.048130542809942229721 0)
(-0.079511322950132676257 0.042167725945262586607 0)
(-0.090909251171112717693 0.032922845803039169077 0)
(-0.099073905690886809872 0.021237207694268355612 0)
(-0.10351340682643131452 0.0079812710685103257363 0)
(-0.10394565754502101129 -0.0059462940577418785248 0)
(-0.10029811608931073208 -0.019604977322193364864 0)
(-0.092720654387972029076 -0.032000529997518810388 0)
(-0.08161054168091122496 -0.042090586975587783447 0)
(-0.067646541924646710897 -0.048823014420745422526 0)
(-0.051820156917358743687 -0.051220728363957343521 0)
(-0.035425172784826729211 -0.048519948856002810544 0)
(-0.020023679348956425345 -0.040350614731832608328 0)
(-0.0077274454863448275785 -0.026955058224217311874 0)
(-0.0013362067944292794607 -0.0095342627155982802301 0)
(-0.0015784519728563137664 0.01378492827603521563 0)
(-0.0088516416608218490003 0.036899915086035843526 0)
(-0.022536546038191829222 0.053715886058677136949 0)
(-0.039399278742185579738 0.063569070652126191678 0)
(-0.057166194794389287026 0.066655498140306870813 0)
(-0.074284333105547994958 0.063647036910671375698 0)
(-0.089511053046207975092 0.055474508400216671067 0)
(-0.10189308134272641315 0.043184313968478015011 0)
(-0.11074542533859836613 0.027855473559060615896 0)
(-0.11560565028821399858 0.010572338198092967945 0)
(-0.11620201987879143213 -0.0075642097763164396415 0)
(-0.11244382437639963146 -0.025406885187739421811 0)
(-0.1044346053985463485 -0.041732802522750765684 0)
(-0.092508442450301195392 -0.055234358857429728673 0)
(-0.077287833388134830059 -0.064549977299002483933 0)
(-0.059750558608018040918 -0.068353836659130945419 0)
(-0.041258404539543623579 -0.065516293954472309968 0)
(-0.023564962592624548454 -0.055324755852869902939 0)
(-0.0091953553551975871633 -0.037756483116497603636 0)
(-0.0016142615506061302154 -0.013883301785614305182 0)
(-0.0018383589290724062539 0.018710182560897410664 0)
(-0.010156898281794279892 0.048819789277033204256 0)
(-0.025583581988232757115 0.069945162873493338385 0)
(-0.044289660438285124999 0.081769668193715241977 0)
(-0.063669616245414825673 0.084916423305550131628 0)
(-0.082056300898272760413 0.080482738840099612987 0)
(-0.098204393718159116444 0.069777249450503245343 0)
(-0.11122109438450934749 0.054158354921911636137 0)
(-0.12050408221831834799 0.034952613525610728984 0)
(-0.12566051419729931671 0.013441739571690571042 0)
(-0.12645107572911246097 -0.009103969191569092137 0)
(-0.12276762725131296072 -0.031368922840299753863 0)
(-0.11464518166558948509 -0.051934146145000172068 0)
(-0.10231004572086685456 -0.069240327171385535054 0)
(-0.086265562263373077312 -0.081596831026078370241 0)
(-0.067403875402431576158 -0.087263639890612892946 0)
(-0.047089060203447344333 -0.084627774920368575851 0)
(-0.027227441502542734653 -0.07247220701801178333 0)
(-0.010771568410893855861 -0.050332683945675721349 0)
(-0.0019290977311014760771 -0.019022445900295718857 0)
(-0.0021287064790866941019 0.024338634674723424317 0)
(-0.011517089480087831788 0.062229055367105080843 0)
(-0.028588240333622869788 0.087897549342214012502 0)
(-0.048858208879194710283 0.10154602776737346737 0)
(-0.069402142887423606821 0.10441573657027826416 0)
(-0.088501493547975582099 0.098183424612388853214 0)
(-0.10499094648727938517 0.084633464143690842474 0)
(-0.11812094307854725805 0.065479339246262618923 0)
(-0.12744281241546209782 0.042293396731989570114 0)
(-0.13268594574831291122 0.016520601597474031397 0)
(-0.13367417840271317298 -0.010453613481041972369 0)
(-0.13028810177636951373 -0.037207956534783891145 0)
(-0.12247311357783036145 -0.062185397998404820519 0)
(-0.11029724466878518263 -0.083612830001626364806 0)
(-0.094065339670895559143 -0.099469582057804026287 0)
(-0.074482701387233285484 -0.10754171540880215485 0)
(-0.052809730975973058487 -0.10559991710741659099 0)
(-0.031025491639483503137 -0.091718291764198295324 0)
(-0.012504520854276808886 -0.064747543578609373371 0)
(-0.0023023647465734474807 -0.025035004543440139702 0)
(-0.0024703311719908131738 0.030722469539912929115 0)
(-0.012968875912249695423 0.077096958081395453033 0)
(-0.031523966070279879625 0.10734484220726278614 0)
(-0.052911409813494375554 0.12245276330007083543 0)
(-0.073923878740942319809 0.12454327510093862741 0)
(-0.09289797595440804634 0.1160638204413706881 0)
(-0.10887158224420187547 0.099381009867604994112 0)
(-0.12135089340070757957 0.076597024567334040523 0)
(-0.13013120042324155534 0.049509595203370920791 0)
(-0.13512913118210215235 0.019670155760598558026 0)
(-0.13627136827006880448 -0.011499951904418310653 0)
(-0.13344082476757157529 -0.042563963009160467321 0)
(-0.12647720775506449131 -0.071915985493373982274 0)
(-0.11523847952828425445 -0.097641018767887138852 0)
(-0.0997378569835545431 -0.1174197580790859452 0)
(-0.080360102005230998889 -0.1285253364161769718 0)
(-0.058103010450003725329 -0.12797263028866884271 0)
(-0.034874439281501613819 -0.11287239250463136642 0)
(-0.014419236486824863613 -0.081046086699892966321 0)
(-0.0027568033217279250616 -0.03203232140251082577 0)
(-0.0028961979154670863465 0.0379446177498295803 0)
(-0.014555316114734147964 0.093360616401491514083 0)
(-0.034303958503827988724 0.12790702463776462694 0)
(-0.056082569634028779648 0.14378583560692273502 0)
(-0.076495393448274676129 0.14436988079773252491 0)
(-0.094110401993178299795 0.13310936001325165967 0)
(-0.10834416100360455548 0.11305716404910613748 0)
(-0.11910146748848800258 0.086714508749645549668 0)
(-0.126525938211251604 0.056055114578538095538 0)
(-0.13079252853701700543 0.022652215691089234301 0)
(-0.13197570621162302285 -0.012142468317205674933 0)
(-0.12998266819117323956 -0.046994894102693259008 0)
(-0.1245427246595747911 -0.080373567730562756051 0)
(-0.11526143774168630396 -0.11033657342360232712 0)
(-0.10176502830015177192 -0.1343472334902420795 0)
(-0.083957153348901886192 -0.14917171922712013643 0)
(-0.062352059545209732871 -0.15094561447307222601 0)
(-0.038547969956843383676 -0.13551568550327275364 0)
(-0.016513643702398130703 -0.099193659992596980302 0)
(-0.0033212977275972450052 -0.040146419928237482566 0)
(-0.0034640646197316802418 0.046138258996503575537 0)
(-0.016333920472153675568 0.11088421780930782234 0)
(-0.03673825536038883427 0.14894204560286461447 0)
(-0.057725825426760531134 0.1644412081489397548 0)
(-0.075928147222720981935 0.16251327215647073943 0)
(-0.090426680754063515355 0.14787034944303648065 0)
(-0.10125137791063670845 0.12432518984748294755 0)
(-0.10886815750776050737 0.094740779054953441762 0)
(-0.11387023579360200376 0.061174541848081319395 0)
(-0.11675218582996833849 0.025105466504521122689 0)
(-0.11777639801613525028 -0.012312419379327619456 0)
(-0.11690312739104928574 -0.049987351335415042275 0)
(-0.11376634597024634643 -0.086615390388163515656 0)
(-0.10770462837083814855 -0.1203900875193166381 0)
(-0.097884415955626483119 -0.14870727400184424738 0)
(-0.083563203568665853083 -0.16791277557358721961 0)
(-0.06449306397955432979 -0.17320077981659875999 0)
(-0.041596571833492301806 -0.15883871361654466892 0)
(-0.018744621034587054947 -0.11898645913270256003 0)
(-0.0040377372430653573482 -0.049527726124223334092 0)
(-0.004273645801900647842 0.055525134063470073242 0)
(-0.018365338413741900264 0.12937914485660348407 0)
(-0.038412122869963843952 0.16936144381159284888 0)
(-0.056688974770873486186 0.18271129877079678172 0)
(-0.070308186881986881045 0.17697724432290726226 0)
(-0.079290768660720531424 0.15836495138367653879 0)
(-0.084560916597492055691 0.13143286053314529038 0)
(-0.087294079366607851833 0.099283036695874335442 0)
(-0.088595237344221353104 0.063905998263837041073 0)
(-0.0893010758389089776 0.026541060836527713418 0)
(-0.089878969527386914917 -0.011993042200425043514 0)
(-0.090372045480105106519 -0.050989638389817133757 0)
(-0.090362565996149057934 -0.089538433787055157764 0)
(-0.088960941554020608879 -0.1261707408870118563 0)
(-0.08486586845563415249 -0.15844658505217984468 0)
(-0.076569741286097045552 -0.18250375796625628588 0)
(-0.062763252467513075405 -0.19267258377485063647 0)
(-0.04318278526786789584 -0.18139725151685764937 0)
(-0.020982926618091073817 -0.13990141714330964207 0)
(-0.0049670432581086837107 -0.060345021577017848857 0)
(-0.0054759583197001096555 0.066437374879535715522 0)
(-0.02062358619704324561 0.14817820581753377018 0)
(-0.038371208443721098458 0.18727280743812493857 0)
(-0.050840734240586271664 0.19597281643989264421 0)
(-0.056498372012475948922 0.18496714860623889032 0)
(-0.05687885349002182872 0.16202260103587015627 0)
(-0.054062125751665857099 0.13224389880290143839 0)
(-0.049992941619709095613 0.098716960982790036283 0)
(-0.046250121025941198782 0.06314792764303454875 0)
(-0.043953777982310301975 0.02637632096452100644 0)
(-0.043744504328141253779 -0.011234357180104638171 0)
(-0.045768105541945776349 -0.049474770382796025292 0)
(-0.049632892820188359573 -0.087971489892199355998 0)
(-0.054341896560942820615 -0.12580622138518876563 0)
(-0.058242196550019179058 -0.16100964344978999088 0)
(-0.059078876239492365829 -0.18989039158659570816 0)
(-0.054263184310550161005 -0.20624506467924963449 0)
(-0.041736868199639849675 -0.20070244862856059798 0)
(-0.022874477485043606673 -0.16077270083333480843 0)
(-0.0061774766166918255311 -0.072736184116479377093 0)
(-0.0072154883542471055444 0.079240028212083007952 0)
(-0.022642631593897212527 0.1656597120394787126 0)
(-0.034338469066032314969 0.19930283674617035872 0)
(-0.036113194018729602441 0.2002408115239296682 0)
(-0.029277513433529321618 0.18273813148576564802 0)
(-0.017467651112895127979 0.15575261631151737785 0)
(-0.0039873413380317208193 0.12442167955170797822 0)
(0.0086089837764024221278 0.091395590506965052047 0)
(0.018488530524970993307 0.05783053159861988729 0)
(0.024433572173835148289 0.024029840440829154657 0)
(0.025736479595127453868 -0.010155552021987607897 0)
(0.022153825042650579502 -0.045045584506071219277 0)
(0.013943421394371543348 -0.080867047010036038901 0)
(0.0019887145683525194947 -0.11741284588451901538 0)
(-0.012008276753520778779 -0.15351428469400787979 0)
(-0.025330660210654887265 -0.18619677516212235213 0)
(-0.034180720188158097983 -0.20942505297053970459 0)
(-0.034213882658168166817 -0.21258004874629962688 0)
(-0.023433518575240099013 -0.17913668653373376882 0)
(-0.0076529532281875284339 -0.086620822308504236142 0)
(-0.0092934175077069441917 0.094508565053292109548 0)
(-0.022410006683407479589 0.17856235564611144806 0)
(-0.020891504867406231888 0.19993014621127547237 0)
(-0.0046831797845249562712 0.1900213995369157971 0)
(0.020016991767141785463 0.16590953474586389582 0)
(0.047379068956048167593 0.13649611559211619061 0)
(0.073344992740780615148 0.10602569029590523664 0)
(0.095299974482195765058 0.076171240401379736173 0)
(0.11162726071092689273 0.047301558000080526356 0)
(0.12134360389867152041 0.019140654949814282781 0)
(0.12386071111430280167 -0.0089113526748761020396 0)
(0.11887942703764756147 -0.037602260492293482219 0)
(0.10640785540278852039 -0.067676031361921018537 0)
(0.086913230305478234028 -0.099652446254879817333 0)
(0.061635024622409100015 -0.1333985412123188663 0)
(0.033069433746718085443 -0.16726914294043171427 0)
(0.0055323265828700288887 -0.19651071810967646325 0)
(-0.01453896916159449354 -0.21078979937682615353 0)
(-0.01994500727780834301 -0.19063993689203373449 0)
(-0.0089166591265981021835 -0.10175890073597601559 0)
(-0.0097710660223867887297 0.11383114018844223136 0)
(-0.013344389933118424446 0.18130719270769801721 0)
(0.014227683509300082659 0.1814209798792837669 0)
(0.057905994528465565274 0.15923051936769627712 0)
(0.10512194036320697543 0.13090744687655159195 0)
(0.1494296504075173504 0.10272149667753004143 0)
(0.18749455362276723491 0.076799075653168583089 0)
(0.2176778442469698982 0.053386388190760442063 0)
(0.23926290590641002831 0.03201628236909295766 0)
(0.25191552422808682898 0.011973123411210099404 0)
(0.25538811782500975278 -0.0075698289703410477636 0)
(0.24940059987134155506 -0.027526235505181861213 0)
(0.23363309758173769759 -0.048884711907504312112 0)
(0.20784074645333497355 -0.072663972890135652971 0)
(0.17217554796691503238 -0.099716138450460622966 0)
(0.12783116704594954527 -0.13012702111574905861 0)
(0.077985148019956235244 -0.16173866473661185905 0)
(0.029220174876633281391 -0.18730930009934948499 0)
(-0.0052699803420800817727 -0.18853234400139595728 0)
(-0.0076556512357326671897 -0.11826333693864786445 0)
(0.0011130829806462374382 0.12888577836299963675 0)
(0.024397454973182120669 0.15478090131763361237 0)
(0.097023752723870135273 0.12867553873338075099 0)
(0.17628057730577365025 0.099900853866978597817 0)
(0.24581039340578025865 0.07514294589336359409 0)
(0.30330070249466317689 0.054895388834719976989 0)
(0.34878397487831769297 0.03851426434145804184 0)
(0.38285926062357794608 0.0250336607533953176 0)
(0.4063163655925309814 0.013576170361288943458 0)
(0.41975403699141550229 0.0034106316119660849175 0)
(0.42340179898260860147 -0.0061199310368789915093 0)
(0.41707450749362739995 -0.015682776787715742295 0)
(0.40014808790327444088 -0.026055593308840264283 0)
(0.371558744590591572 -0.038209189735871229576 0)
(0.32994097837719943422 -0.053375436321113522986 0)
(0.27406248571625430044 -0.072961092425818996343 0)
(0.20340725966637904221 -0.097966416358784169649 0)
(0.11986303082092787664 -0.1274538013236340972 0)
(0.039292526971086649823 -0.15281248989178347619 0)
(0.0056962303565516562986 -0.12542851953549158384 0)
(0.069997441259124187907 0.060664219205106770239 0)
(0.15372346218654997507 0.031271776392060600391 0)
(0.28268733547682900475 0.0083369757978505772134 0)
(0.38995201805709750476 -0.0010218203832297917573 0)
(0.46761008544790971797 -0.0048079028256466848842 0)
(0.52447209513282910809 -0.0064318222088874093395 0)
(0.56606272177597671824 -0.0071205968122224358799 0)
(0.59554441579359551628 -0.0073002197199996295141 0)
(0.61502868015347544883 -0.007073083029424027425 0)
(0.62580403859866240435 -0.0064234782693599560416 0)
(0.62844989506814008529 -0.0053048379940037219613 0)
(0.62290103537986407645 -0.0036780522847516452373 0)
(0.60842556038289974385 -0.0015542562598105050947 0)
(0.58350182099306779904 0.00096170444858239157587 0)
(0.54561771493082333873 0.0035831280182373019538 0)
(0.4910396350716675351 0.0056299570376846736278 0)
(0.41379202824869421029 0.005527939418142056513 0)
(0.30451373775464229965 -0.00030089211473559047266 0)
(0.16898567846818388083 -0.018889979631793833714 0)
(0.07222894506610591514 -0.045844799971737487665 0)
(0.39775364440253235809 -0.21080951749038484566 0)
(0.55408080172737006475 -0.18974770599687901251 0)
(0.67675002209717205481 -0.13632837355509955235 0)
(0.75171701162316573175 -0.098457199761406183347 0)
(0.79545130912078865215 -0.07225013344607530974 0)
(0.82360238047959644092 -0.053765418922053137551 0)
(0.84265460570589745259 -0.040387422854966173458 0)
(0.85544920392108103613 -0.030113551270261256637 0)
(0.86353828899807505426 -0.021508338322023264066 0)
(0.86777156724416826261 -0.013540980147879119744 0)
(0.86852335761024901384 -0.0054006962298732506117 0)
(0.86578839280839314796 0.0036400547256820979525 0)
(0.85916946933467885916 0.014353037978283755133 0)
(0.84775095360936614242 0.027694775560935237096 0)
(0.82980578982461150606 0.045027058235485417637 0)
(0.80215127176696476852 0.068428617048533812994 0)
(0.75797572127865064928 0.10102208095318124248 0)
(0.68093053082265841969 0.14774031347408506099 0)
(0.54924523465094776675 0.21282941867439805761 0)
(0.36766978498054708746 0.2326447806722632683 0)
)
;

boundaryField
{
    movingWall
    {
        type            fixedValue;
        value           uniform (1 0 0);
    }
    fixedWalls
    {
        type            fixedValue;
        value           uniform (0 0 0);
    }
    frontAndBack
    {
        type            empty;
    }
}


// ************************************************************************* //
