/*--------------------------------*- C++ -*----------------------------------*\
| =========                 |                                                 |
| \\      /  F ield         | OpenFOAM: The Open Source CFD Toolbox           |
|  \\    /   O peration     | Version:  2412                                  |
|   \\  /    A nd           | Website:  www.openfoam.com                      |
|    \\/     M anipulation  |                                                 |
\*---------------------------------------------------------------------------*/
FoamFile
{
    version     2.0;
    format      ascii;
    arch        "LSB;label=32;scalar=64";
    class       volScalarField;
    location    "0.8";
    object      p;
}
// * * * * * * * * * * * * * * * * * * * * * * * * * * * * * * * * * * * * * //

dimensions      [0 2 -2 0 0 0 0];

internalField   nonuniform List<scalar> 
400
(
-0.039614282617258370078
-0.044494919074129328507
-0.050169350258881750815
-0.054173488099949110297
-0.055139423892905083113
-0.052496944920454868821
-0.046253198706059983625
-0.03681454730365969763
-0.024856952486049833928
-0.011241449795923477012
0.0030463112210654327838
0.016950319650954500522
0.029405288893755994473
0.039414550955466753912
0.046152116798231480888
0.049095770303319838379
0.048197245697765463135
0.044077811166175526192
0.038231273682813357584
0.033255274332389367364
-0.034775712524933638514
-0.039791367990546853972
-0.044180754898784972695
-0.04679321934822410628
-0.047006321061501508962
-0.044422174148441587183
-0.039021155499256283961
-0.031097038522039131131
-0.021164955430950871396
-0.0099004861256411780257
0.001909361744236585598
0.013415861946301697871
0.023765556746706752167
0.032169641392251945022
0.037987598054954989368
0.040828543694154714738
0.040676837118444192365
0.03797083315085541394
0.033435506579064133703
0.028330912132613364496
-0.028779303494269929675
-0.035661866691482232983
-0.040378964637185564557
-0.04270888999237869299
-0.042735215748797253377
-0.040264812436380574556
-0.035333115185060381958
-0.028217298017747687033
-0.019362439672953594277
-0.0093430734243010547108
0.0011690534141327567092
0.011443714979856328684
0.020739988072326968199
0.028364703530667122883
0.033739703520207796339
0.036482092961956924526
0.036514087837567994754
0.034065848599115981787
0.02915823140711196193
0.022136364556395844716
-0.023768525891411582118
-0.033132104372896861721
-0.038941346554757783061
-0.041576176436575233708
-0.041700518169248551592
-0.039308503701394881258
-0.034522718935975596488
-0.027656037632706090279
-0.019141450344657515159
-0.0095115436174263625485
0.00061634062531494093837
0.010565398241222326986
0.01963564568349069131
0.027151089766786769275
0.032513995410679674691
0.03527414910220848937
0.035243944008773425702
0.032459723588542148398
0.026373874951802787903
0.01676857342159832065
-0.021131187276538600239
-0.032993264497163034277
-0.040045346238578229114
-0.043104901656900063145
-0.043323490953291382555
-0.040858544895155259058
-0.035923920072391625491
-0.028886168074775807335
-0.020191403168753833952
-0.010359084229785800804
1.6483876501917186803e-05
0.010277586142379621995
0.019727075611975460057
0.027664293777726875478
0.033428578353515203681
0.036463672971810870416
0.036449163724855161706
0.03323919665358263803
0.025804378280770669946
0.013537440738901090898
-0.021878397270203110703
-0.036137413585717585718
-0.044391365362393124527
-0.047804660882018679136
-0.047958881096529702714
-0.045159565829333003784
-0.039712943510897283361
-0.032048984795801066516
-0.022642023657550369026
-0.01201654596894865569
-0.00076422141210278455529
0.010453300921025674569
0.020915187365186386353
0.029865506797271023504
0.036546867260630534757
0.040263783131632729928
0.040538017939263072675
0.03703684060075756318
0.028287423517848481885
0.013380703788639031551
-0.026875779330659620159
-0.04342130971196760808
-0.05273123224958205929
-0.056285662607056613504
-0.056082329694423088684
-0.05257658491674489093
-0.046172917554759600189
-0.0373722293169588618
-0.02668539903223216686
-0.014650690808148791877
-0.0018667411844901565451
0.010989169443966891049
0.023156897195129578365
0.033803716754143502132
0.04204686019274862796
0.047016872969670733817
0.048041684612485223427
0.044571181052879042805
0.034668846836961843272
0.017138890160033538879
-0.037015169019929933247
-0.055737555415872455655
-0.065856395832408945457
-0.069191653768359479004
-0.068192063514520229184
-0.063486221781489007854
-0.055590781112056640578
-0.045084312290333550255
-0.032515541103923031874
-0.018434303403404902338
-0.003442614991825354142
0.011769044107213865596
0.02639928269596328661
0.039528376879125831644
0.050125617722080968719
0.057110027678394174877
0.059564621403547811374
0.056658779824643443201
0.045906896574218876428
0.025771904652466887803
-0.053348267235042927392
-0.074117937765628361113
-0.084668967271219058857
-0.087244185248191816195
-0.084832931648714943185
-0.078286098585012564577
-0.068255889591030460828
-0.055404408990361787846
-0.040311424774428450402
-0.023523464529046113347
-0.0056269231279744849963
0.012693824890884554749
0.030611164052070094499
0.047123080857822720324
0.061037744839603093328
0.071024135856143782997
0.075853013460286278224
0.074312366631724954824
0.063210814574098939111
0.040541500532112750843
-0.077210296892382290768
-0.099826132326309699461
-0.11022467729532808844
-0.1112390700400006649
-0.1065592714420070114
-0.097337683731334154191
-0.084394038202641866175
-0.068475954994136889464
-0.050175856465476051382
-0.030006053834283626103
-0.0084995251223253971695
0.01370558792176958772
0.035792545395803940234
0.056703278783810096009
0.075088782230000039597
0.08933573500818850488
0.097822493378853736523
0.098813077646762739747
0.088169901042053092088
0.063188960513426623011
-0.11038508673994000542
-0.13447115867052511495
-0.14376966863748968928
-0.14201680098455182755
-0.13386113855821979435
-0.12086897873852059382
-0.10406232902714236677
-0.084264484387586741088
-0.062043422141846583939
-0.037824736730532985962
-0.01202677511045859883
0.014824443770219948233
0.041988970168654209114
0.068410275016958510541
0.092616612333760797715
0.11270149491150992238
0.12656952772092311399
0.13177738770970942594
0.1228998542519266074
0.09615560009830556587
-0.15538305683154998715
-0.1801643575960589494
-0.18676420092140680329
-0.18039257377527986859
-0.16704244104767113077
-0.14883178199445820655
-0.12700556560255263361
-0.10242445817283660214
-0.075563712791113749057
-0.046680126491518085519
-0.015987614170207178899
0.016196292852854232702
0.049310126658452781145
0.082399966870588203793
0.11395581839762876364
0.14181487560605629539
0.16335145979648740822
0.17520638257122453374
0.17021766625377171556
0.14290517243365263855
-0.21598866859428661469
-0.23976457727206440529
-0.24087495655209120726
-0.22701428733154505046
-0.20602590305987908414
-0.18070074750240042172
-0.1524736594493603381
-0.12214432333043022394
-0.089975704373004714021
-0.055933796264970539469
-0.019905277268349851755
0.018130133449170641319
0.057931706291303675105
0.09880492668841536763
0.13936157582703118107
0.17730867722805007669
0.20950903458428787873
0.23150399373398597436
0.23388239787912640244
0.20848375018241199763
-0.29846367416738273093
-0.31737376191928667879
-0.30798480259757665678
-0.28217122665352406541
-0.25011117727966220015
-0.21525252422061594282
-0.17904937758345840226
-0.14202563502332016254
-0.10403086827940345727
-0.064566529378294004737
-0.023034706710272408875
0.021082489809966270533
0.068047310306421443515
0.11764625738525026633
0.16887866863183498278
0.21959992690115456848
0.26634804207804824161
0.30352221835099235658
0.3190539255794739848
0.30064600444589556494
-0.413595024039464354
-0.41884029672139350131
-0.38993863845169929316
-0.34536917465871097566
-0.29758689506490504373
-0.25029110150057648498
-0.20449846132678103916
-0.16003660408858386144
-0.11602212281711815622
-0.071259904511368724056
-0.024483206029045440077
0.025499916864177775422
0.079664116858166003632
0.1385606479365487087
0.20197456816997952367
0.26842648666878815567
0.33463866672982106598
0.39419541573971383919
0.43254004463235523614
0.43147912333814214536
-0.57789627556393330376
-0.54958945628280730933
-0.48585605085809152603
-0.41327339176761751505
-0.34429867587251156147
-0.28173281825050772165
-0.22525640535596291869
-0.17328629994928157476
-0.12376075798853486409
-0.074525725481879093182
-0.023473079220158305641
0.031414075755800678624
0.092014861002662956535
0.15995096945301573443
0.2363083798052495188
0.32108759547989179639
0.41217653243669805097
0.5033855898747643387
0.57984939295069026777
0.6173421045087285064
-0.81921159583785851943
-0.71114622584105136038
-0.58783930365049630318
-0.47704075720815330985
-0.38217905802547019745
-0.30290103063113482662
-0.23620274366505364383
-0.1780785076994113314
-0.12478117738297395123
-0.072997606604581585787
-0.019701696770571593825
0.038008673411572352352
0.10301264824309677715
0.17824929696481611741
0.26666877881968803488
0.37083558392505239221
0.49126077351593250286
0.62401298232889446105
0.76180176129400689611
0.88262557942084007845
-1.2384850833458225239
-0.93129151204796500885
-0.69955590745337792313
-0.53581564645257939716
-0.40998329798014804259
-0.31313390156389858676
-0.23746924435222885319
-0.17517902922880601579
-0.12024253552336838791
-0.068046506003258400153
-0.014674527163515900183
0.043660678556386701976
0.11084806850177214566
0.19135674403889765816
0.29068763997912550057
0.41552085402589716834
0.57145749208927354434
0.76170911122125395387
1.0073225631368534216
1.3177419608710341237
-2.0740310340926115806
-1.2878080577463015821
-0.84586060549103303519
-0.60490933791122480923
-0.4412372396529037899
-0.32512946950126098145
-0.24072674770519977838
-0.17502293727238524279
-0.11922775116809920803
-0.067271966504181684998
-0.014316337964762977999
0.044052686003193244901
0.11273068056580350105
0.19778881271070070103
0.30783392052908481462
0.45555337571318482714
0.6567561128052449293
0.93536986239790875786
1.3869139760163780029
2.1305348755556945406
-2.6363913475912177375
-1.2816163067094010763
-0.73069710788809860702
-0.49250822507724550947
-0.34760670812189536916
-0.25163687085201891236
-0.18527187520701263179
-0.13549915001315315788
-0.094311765448915702015
-0.056474747137386718809
-0.018001256309039349868
0.024698992018707902757
0.075519744314806264152
0.13955560330581370798
0.22460948825814552876
0.34401649454224036973
0.52059695234760372529
0.80325672858348307059
1.3752992577087190806
2.6013833873412086639
)
;

boundaryField
{
    movingWall
    {
        type            fixedValue;
        value           uniform 0;
    }
    fixedWalls
    {
        type            zeroGradient;
    }
    frontAndBack
    {
        type            empty;
    }
}


// ************************************************************************* //
