/*--------------------------------*- C++ -*----------------------------------*\
| =========                 |                                                 |
| \\      /  F ield         | OpenFOAM: The Open Source CFD Toolbox           |
|  \\    /   O peration     | Version:  2412                                  |
|   \\  /    A nd           | Website:  www.openfoam.com                      |
|    \\/     M anipulation  |                                                 |
\*---------------------------------------------------------------------------*/
FoamFile
{
    version     2.0;
    format      ascii;
    arch        "LSB;label=32;scalar=64";
    class       surfaceScalarField;
    location    "0.8";
    object      phi;
}
// * * * * * * * * * * * * * * * * * * * * * * * * * * * * * * * * * * * * * //

dimensions      [0 3 -1 0 0 0 0];

oriented        oriented;

internalField   nonuniform List<scalar> 
760
(
1.00773893993847231e-08
-1.0077430945687815552e-08
-2.3700358986075730356e-08
3.377769584314943205e-08
-1.0347610254417051249e-07
7.9775997983689882793e-08
-2.1461110069009911046e-07
1.1113544270943182045e-07
-3.4051650668639924922e-07
1.2590571418813868082e-07
-4.6594090242639764788e-07
1.2542424480486257522e-07
-5.7801220554721031327e-07
1.1207068611704179236e-07
-6.6656497531182702893e-07
8.8552056009298677156e-08
-7.2413535032684533579e-07
5.7570065385529484026e-08
-7.4591480255988723201e-07
2.1779809346508975301e-08
-7.2979335143064616664e-07
-1.6120608591837520881e-08
-6.7651649250567719287e-07
-5.3276045559519654933e-08
-5.8992367489066357889e-07
-8.6592536396148466095e-08
-4.7719578949682477559e-07
-1.1272830123466966607e-07
-3.4899864422101749101e-07
-1.2819799061977039207e-07
-2.1933883918888530437e-07
-1.2966056590430245529e-07
-1.0484866364869532197e-07
-1.1449042549457210349e-07
-2.3202525977501217225e-08
-8.1645779406522618064e-08
1.0719971731239496856e-08
-3.3921801374655222924e-08
1.0720529019501470418e-08
-3.2183575669417528957e-08
2.2106242212952537324e-08
-1.5928581699571288729e-07
1.6087955435656687574e-07
-3.7444804229764257255e-07
2.9493785885448782133e-07
-6.5088665103310369025e-07
3.8757403509031615336e-07
-9.5569419619732450839e-07
4.3071371871775365444e-07
-1.256321799782785846e-06
4.2605250768030099192e-07
-1.5238876386373060846e-06
3.796369056193771456e-07
-1.7347877544344016316e-06
2.9945195823409513768e-07
-1.8713854046312618733e-06
1.9416701018132180596e-07
-1.9223387146600180654e-06
7.2732378580082904308e-08
-1.8828813844232490502e-06
-5.5578228993452488239e-08
-1.7551704265707267993e-06
-1.8098665739603671756e-07
-1.5486680632740883983e-06
-2.9309414384759795113e-07
-1.2803992098030317494e-06
-3.8099646181928617004e-07
-9.7481081385156871895e-07
-4.3378617050031006743e-07
-6.6282550376354165668e-07
-4.4164624686774875455e-07
-3.795445469106539583e-07
-3.977721036730291391e-07
-1.5997815175269949348e-07
-3.0121278610433124836e-07
-3.1612402803748605318e-08
-1.6228769861239390879e-07
-2.0891260854128193272e-08
-8.0498837895466664443e-08
1.0260542192816258662e-07
-3.0489190401416651741e-07
3.852724186516743715e-07
-6.4504108161395405879e-07
6.3508648819166912664e-07
-1.0612627527736067238e-06
8.0379519672122206003e-07
-1.5090421847500504275e-06
8.7849314229898393209e-07
-1.9448057584649574812e-06
8.6181669258023508016e-07
-2.3296679467483797503e-06
7.6449995761368352245e-07
-2.6315877868894009901e-06
6.0137231093338097434e-07
-2.8264951433607524125e-06
3.8907414058309045187e-07
-2.8989040913263579978e-06
1.4514048053426656961e-07
-2.8423676525419092993e-06
-1.1211559518402256265e-07
-2.659934136762105921e-06
-3.6342059710702727437e-07
-2.3645819197392026236e-06
-5.8844603060407642584e-07
-1.9794415381201835619e-06
-7.6613598376717175943e-07
-1.537459854202924693e-06
-8.7576700390034011273e-07
-1.0800308717408447678e-06
-8.9907489770392704106e-07
-6.5406267400350177356e-07
-8.2374065901932256654e-07
-3.0705904618189606873e-07
-6.4821715020039227398e-07
-8.0071403122136812913e-08
-3.8927592346866214826e-07
-1.0096242427628044603e-07
-1.2313441072890057182e-07
2.2574020377530344801e-07
-4.3920791444910060442e-07
7.0134612403193185719e-07
-8.9597369297900104533e-07
1.0918519450687472464e-06
-1.4380521648189372393e-06
1.3458729475055491962e-06
-2.0096767303502443948e-06
1.4501171007422033884e-06
-2.5586414773755108331e-06
1.4107814790257012584e-06
-3.0392881744712615437e-06
1.2451474150687609658e-06
-3.4143456611487563573e-06
9.7643079865192123593e-07
-3.6559282423056571031e-06
6.3065727820349403719e-07
-3.7460921969446747507e-06
2.3530415844611297469e-07
-3.6772737879567159038e-06
-1.8093494132084710347e-07
-3.4527776068041422458e-06
-5.8791777921336498196e-07
-3.0873030158540829041e-06
-9.5392107146333483272e-07
-2.6073158288856947441e-06
-1.2461228223471926743e-06
-2.0509037934204733186e-06
-1.4321781459813033905e-06
-1.4666343326966234961e-06
-1.4833434936776273753e-06
-9.1093648519800192959e-07
-1.3794381899036494941e-06
-4.4376775759291853571e-07
-1.1153862149168510291e-06
-1.2299627320210281166e-07
-7.1004805053163430262e-07
-2.239589537924030168e-07
-1.6074394841850785854e-07
3.8648423817031219817e-07
-5.6185036779407583827e-07
1.1024531174433998372e-06
-1.127550774453251099e-06
1.6575525992581058887e-06
-1.7854816056079417742e-06
2.0038033714620550258e-06
-2.4683296453007428698e-06
2.1329642488993847322e-06
-3.1162871998221191322e-06
2.0587383130547799953e-06
-3.6788160556490366063e-06
1.8076763026136858295e-06
-4.1155662532760670027e-06
1.413181821880222339e-06
-4.3967143999612384099e-06
9.1180651161916478539e-07
-4.5030768112371014419e-06
3.416672058156668811e-07
-4.4263012041101896724e-06
-2.5771076014278667348e-07
-4.1693100320699894986e-06
-8.4490985299097466158e-07
-3.7470007294468139819e-06
-1.3762313904258155283e-06
-3.1870246381299466621e-06
-1.8060994340290934819e-06
-2.5302820448609296076e-06
-2.0889204918140557589e-06
-1.8306242553876231282e-06
-2.1830004815670572684e-06
-1.1532282510085070884e-06
-2.0568333772220138967e-06
-5.7132716326349638592e-07
-1.6972869716717836277e-06
-1.6160387958041834895e-07
-1.1197715986396705475e-06
-3.8556337397915078994e-07
-1.9543146934811114435e-07
5.8191532104755103297e-07
-6.7649321165129140784e-07
1.5835154468221080286e-06
-1.3445597634046149909e-06
2.3256199076150417625e-06
-2.1097683681414233019e-06
2.7690122633643755687e-06
-2.8932078633840569491e-06
2.9164031964466179097e-06
-3.6283251904800408424e-06
2.7938545880865952093e-06
-4.2612608633753569162e-06
2.4406111655880345505e-06
-4.7504044344337876656e-06
1.9023254190200496609e-06
-5.065613281180559941e-06
1.2270162269643902684e-06
-5.1875159737129621535e-06
4.6357104906437662963e-07
-5.1072256625593019037e-06
-3.3800035748566604088e-07
-4.8266550636265003301e-06
-1.1254805826840135526e-06
-4.3594677658802427785e-06
-1.8434195339059983243e-06
-3.7325179342705549136e-06
-2.4330502795463745776e-06
-2.9874182801064019562e-06
-2.8340207208745760034e-06
-2.1816557341669077883e-06
-2.9887628673624112593e-06
-1.3885235626275229288e-06
-2.8499648367683348555e-06
-6.9519860703381583904e-07
-2.3906112079452673036e-06
-1.9867649320267657461e-07
-1.6162934631207707962e-06
-5.8424030082775344388e-07
-2.2914985474682046301e-07
8.1106446255605034005e-07
-7.8701765940737546074e-07
2.1413834255649915807e-06
-1.5515176433480554056e-06
3.0901207034546535053e-06
-2.4148498936160968094e-06
3.6323454073662650992e-06
-3.2868973764905782314e-06
3.7884509276844121442e-06
-4.0956705091252254371e-06
3.6026270612762219371e-06
-4.7859060438061443355e-06
3.1308455481003651496e-06
-5.3168091240436062355e-06
2.4332276379166726499e-06
-5.6597180510411367277e-06
1.569925158599348008e-06
-5.7962555172667122391e-06
6.0010937058152335882e-07
-5.7173386751367832079e-06
-4.1691604370396166726e-07
-5.4232660178859381174e-06
-1.4195524779248547491e-06
-4.924959148671104101e-06
-2.3417264423520586066e-06
-4.2462687181940134593e-06
-3.1117414550664593967e-06
-3.4270128887490957429e-06
-3.6532774984664281524e-06
-2.5260860560085085222e-06
-3.8896902712751503628e-06
-1.6236109105775062001e-06
-3.7524398873731449232e-06
-8.2087658266382947973e-07
-3.1933449762753179785e-06
-2.3682735769514043656e-07
-2.2003421548868262903e-06
-8.2106769773571459686e-07
-2.6348885136309454298e-07
1.0745526997422866233e-06
-8.9635568670393454806e-07
2.7742498427567369183e-06
-1.7506576371630267227e-06
3.9444229645800750133e-06
-2.6999656403451196196e-06
4.5816543618454071124e-06
-3.6439568695148125417e-06
4.7324431124538007633e-06
-4.5074234912936900552e-06
4.4660939145393084728e-06
-5.2364975539656138373e-06
3.8599189042200321122e-06
-5.7939925059240927733e-06
2.9907214041892616172e-06
-6.1550602549267308876e-06
1.9309920155557829567e-06
-6.3038734582531188267e-06
7.4892251898021700721e-07
-6.2317241401633357875e-06
-4.8906458951329379704e-07
-5.9367609148083251802e-06
-1.7145146033993711506e-06
-5.4254940280821206046e-06
-2.8529925453883510535e-06
-4.7160815464474919708e-06
-3.8211538707038798234e-06
-3.8431707503407027933e-06
-4.5261888947280245183e-06
-2.8636229806911025719e-06
-4.8692388696150223359e-06
-1.8617967137360694572e-06
-4.7542666880385482818e-06
-9.5237702515745629469e-07
-4.1027646486478501904e-06
-2.7819363774786994273e-07
-2.8745251370973708713e-06
-1.0992610066063847535e-06
-2.9974646502431043669e-07
1.3742990774211863435e-06
-1.0061368043494530596e-06
3.480639397786868039e-06
-1.9408318966131360134e-06
4.8791176090121255278e-06
-2.9578397050477436574e-06
5.598662534447369035e-06
-3.9486113011436610229e-06
5.7232157642533963766e-06
-4.8383467474112499236e-06
5.3558303690928026018e-06
-5.578704565016976223e-06
4.6002769659823075025e-06
-6.1399498994212338554e-06
3.5519660525692045862e-06
-6.5041380176179726459e-06
2.2951789762827832532e-06
-6.6600757737106641146e-06
9.0485936845917603249e-07
-6.6003535058041541819e-06
-5.4878700385604549714e-07
-6.3205989143484949473e-06
-1.9942685606382859066e-06
-5.821123350870687452e-06
-3.3524671162677397256e-06
-5.1111458014274429871e-06
-4.5311306472836378903e-06
-4.2156227637204163607e-06
-5.4217117713401503657e-06
-3.1842054063276758216e-06
-5.9006566741858359153e-06
-2.100866488899147136e-06
-5.8376062978487364301e-06
-1.0913855826144786176e-06
-5.1122460168427410332e-06
-3.2437254299498752256e-07
-3.6415381676807420136e-06
-1.4236331399025162007e-06
-3.3924092852559341035e-07
1.7135405620141993994e-06
-1.1167455719767912664e-06
4.2581433903622692156e-06
-2.1166485390236472394e-06
5.8790196238280370555e-06
-3.1726836867349387597e-06
6.6546971865399527548e-06
-4.171828078540560351e-06
6.7223606031759936748e-06
-5.0454076279942394791e-06
6.2294110308881415851e-06
-5.756487744472174573e-06
5.3113581111976981969e-06
-6.287853052056674048e-06
4.0833316458805312557e-06
-6.6323417062814735986e-06
2.6396670349986208879e-06
-6.7860107975265800622e-06
1.0585273928661561509e-06
-6.7440826070635745377e-06
-5.9071608983179952187e-07
-6.499605698413322978e-06
-2.2387457177776821053e-06
-6.0450012993358378561e-06
-3.8070710518809698094e-06
-5.3769299638637140811e-06
-5.1992011401003950319e-06
-4.5049830572972119122e-06
-6.2936579605987806683e-06
-3.4642902340732653411e-06
-6.9413492797124509199e-06
-2.330899196406093895e-06
-6.9709976500067563496e-06
-1.2365653628067904898e-06
-6.2065803729556280307e-06
-3.7650803560560732205e-07
-4.501595816325616709e-06
-1.8001409822381805163e-06
-3.8380186351904899582e-07
2.0973433173157854509e-06
-1.2273154578902097557e-06
5.1016568981078085876e-06
-2.2669233100213324345e-06
6.918626633531371372e-06
-3.3168962178867796478e-06
7.7046690590985148005e-06
-4.2667418504567897642e-06
7.6722057798124154493e-06
-5.0626502713204608975e-06
7.0253199136272389294e-06
-5.6870274277811113384e-06
5.935736348610050823e-06
-6.1413489205737288446e-06
4.5376541524616917237e-06
-6.4336140220039733797e-06
2.9319324937015337176e-06
-6.5700267557303358986e-06
1.1949396836111618462e-06
-6.5501150124916789188e-06
-6.1062875147628146937e-07
-6.3647855521585388697e-06
-2.4240760254906484589e-06
-5.9974037115826874886e-06
-4.1744532281235056272e-06
-5.4286404193109027836e-06
-5.7679641459586451443e-06
-4.6463281790698164069e-06
-7.0759695356564452596e-06
-3.6615472197534750725e-06
-7.9261296203474432742e-06
-2.5309737998587638521e-06
-8.1015708368130645432e-06
-1.3824453515568944818e-06
-7.3551090068642657827e-06
-4.3540795800977207031e-07
-5.4486335592164669917e-06
-2.2355490463138247117e-06
-4.3641711087215963523e-07
2.5337611102264415017e-06
-1.3349377815324223173e-06
6.0001780978808594373e-06
-2.3709601869915804263e-06
7.9546488551557963765e-06
-3.3446571065240918665e-06
8.6783651077388748333e-06
-4.1608148309440180584e-06
8.4883624951498679945e-06
-4.7932950649006232484e-06
7.6577996836374545396e-06
-5.2537293408300180767e-06
6.3961710049896039601e-06
-5.5688588285665061126e-06
4.8527846073589802963e-06
-5.7658920473474569224e-06
3.1289666781537522154e-06
-5.8637078876115999209e-06
1.2927559646539590535e-06
-5.8678628611658101185e-06
-6.0647403315552654726e-07
-5.7682252882015781016e-06
-2.5237143262058821117e-06
-5.5391321848483813221e-06
-4.4035470878566964113e-06
-5.1431042293502107792e-06
-6.1639924864682684398e-06
-4.5402918847176700111e-06
-7.6787817479951646425e-06
-3.7066538166905654082e-06
-8.7597672004743621635e-06
-2.6634250234748017967e-06
-9.1447991295825543272e-06
-1.5170860827167007979e-06
-8.5014477290897078396e-06
-5.0158070580512756568e-07
-6.4641390498950658134e-06
-2.7371300069074198529e-06
-5.0182495963064421177e-07
3.0355861273287042303e-06
-1.4314456835010085337e-06
6.9297995941472559671e-06
-2.3897731772427757111e-06
8.9129769089657383968e-06
-3.1792870226007876908e-06
9.4678788250709391885e-06
-3.7422133585560685555e-06
9.0512880104701960113e-06
-4.097539196919159111e-06
8.0131245487918234359e-06
-4.296783121986652099e-06
6.5954144190822734664e-06
-4.3971766430201942083e-06
4.9531783586235567703e-06
-4.4472270718523413115e-06
3.1790178955478623742e-06
-4.4794653764961459794e-06
1.324995144185012093e-06
-4.5066474326780374667e-06
-5.7929147383888935167e-07
-4.5194467473543356324e-06
-2.5109150820919744782e-06
-4.4852536417091198214e-06
-4.4377407136769051862e-06
-4.3492504138590400902e-06
-6.299996341548124332e-06
-4.0407897947521241312e-06
-7.9872427498678618166e-06
-3.4902886632768822811e-06
-9.3102683052552365905e-06
-2.6633449775628309205e-06
-9.9717424764923312199e-06
-1.6168805285864000818e-06
-9.5479118110217554675e-06
-5.7479896359901326533e-07
-7.50622046840824314e-06
-3.3119291574770661055e-06
-5.8572024709282319325e-07
3.6213058116953746271e-06
-1.4933944325405761e-06
7.8374742704546127204e-06
-2.2461863082491975954e-06
9.6657696464969432862e-06
-2.6888610391956968127e-06
9.9105541864087553014e-06
-2.8366992298797241235e-06
9.1991261287128879787e-06
-2.774339469781945856e-06
7.9507640794809910463e-06
-2.6011378515745006758e-06
6.4222119102241726759e-06
-2.4052935492666445656e-06
4.7573335011884246409e-06
-2.2541588484503811423e-06
3.0278832453953263147e-06
-2.191643098562454194e-06
1.262479961319105717e-06
-2.237400538875789719e-06
-5.3353329836692550045e-07
-2.3853537744969003249e-06
-2.3629613311173488861e-06
-2.6009289399843039535e-06
-4.2221654738163987342e-06
-2.8179494150722764212e-06
-6.0829761922716376059e-06
-2.9384324850182244398e-06
-7.8667601560311527052e-06
-2.8422977836684343417e-06
-9.4064033377625972992e-06
-2.4188390917292751023e-06
-1.0395201193484159376e-05
-1.6344692966572365654e-06
-1.0332281396027334614e-05
-6.5155869086875670041e-07
-8.4891308469554726927e-06
-3.9634878653199952448e-06
-6.8763318652826606069e-07
4.3089382280179720482e-06
-1.45332957545858083e-06
8.6031705874740362593e-06
-1.7807247535920362822e-06
9.993165363663096483e-06
-1.6405428682436071777e-06
9.7703731370029527e-06
-1.1702138973535089319e-06
8.7287977645229514829e-06
-5.3610126977988355049e-07
7.3166514902514533499e-06
1.1692401542511998323e-07
5.7691861105144475553e-06
6.793094892414671882e-07
4.1949472839850035537e-06
1.0750364913310979791e-06
2.6321556827242169149e-06
1.2561186164278997729e-06
1.0813977244461667016e-06
1.1987856028729652156e-06
-4.7619994692903177678e-07
9.032976091958020461e-07
-2.0674727790687652507e-06
3.9797239132255443505e-07
-3.7168397887150292686e-06
-2.5279389036066843386e-07
-5.4322097538208811952e-06
-9.3858827612971307254e-07
-7.1809659410517795005e-06
-1.4977985469287454727e-06
-8.8471933947485307875e-06
-1.732571484657464266e-06
-1.01604285082837279e-05
-1.4695433125939598967e-06
-1.0595309613107722313e-05
-7.155375407704568115e-07
-9.2431364985140919405e-06
-4.6790253067052477943e-06
-7.7368656296659912292e-07
5.0826243203537289732e-06
-1.1238746114072748968e-06
8.9533581726741950306e-06
-6.5875918045750525292e-07
9.5280498441606872851e-06
3.789771504845592869e-07
8.7326371979363087174e-06
1.6854037069817424079e-06
7.4223718821911056031e-06
3.0205790823640738899e-06
5.9814766938616775957e-06
4.2193502284087570036e-06
4.5704151434941961681e-06
5.1765516248926113431e-06
3.2377456088194863713e-06
5.8275708151285495536e-06
1.9811359481678996478e-06
6.1332645808949759128e-06
7.7570345587261840182e-07
6.0714448228322007368e-06
-4.1438040314284598036e-07
5.6347210228035173133e-06
-1.6307488365034776815e-06
4.8347287344661119625e-06
-2.9168471275826846885e-06
3.7137113718842629801e-06
-4.3111920199307158505e-06
2.3643152768032594502e-06
-5.8315696710689645597e-06
9.5538735633788617898e-07
-7.4382655443566507956e-06
-2.4812618519266067852e-07
-8.9569151732852362707e-06
-8.9975465820241313664e-07
-9.9436813103017473818e-06
-7.0875175449934656914e-07
-9.4341394324461203046e-06
-5.3877769598201755055e-06
-6.8892744227255138036e-07
5.7715518102571408164e-06
-1.645886195930517988e-08
8.2808891991526489796e-06
1.7979877715535010737e-06
7.7136027413636022617e-06
4.0762517198069057449e-06
6.4543730190277395325e-06
6.3684854334980004045e-06
5.130138346037371299e-06
8.4293668700097065967e-06
3.92059573581611845e-06
1.0135168790210429706e-05
2.8646137301242386678e-06
1.1428700238940585793e-05
1.9442144355708780888e-06
1.2284194120408940633e-05
1.1256420026512374395e-06
1.2687130775624727011e-05
3.7276647615010651733e-07
1.262422160037104001e-05
-3.5147161281325685433e-07
1.208043939108327419e-05
-1.0869668662021588242e-06
1.104145992027996425e-05
-1.8778676474419501414e-06
9.5044180310784410549e-06
-2.7741499216919441532e-06
7.5009695515049231479e-06
-3.8281209371616222118e-06
5.1392683553513625571e-06
-5.076564203430990352e-06
2.6687492621390037593e-06
-6.4863961011074482458e-06
5.6463587019881637344e-07
-7.8395680341089658746e-06
-4.4586208441332130654e-07
-8.423641568349557083e-06
-5.833639006780896375e-06
1.83877341938212357e-07
5.5876748273443503851e-06
3.0471854100094982406e-06
5.4175811296914034172e-06
6.8795804956195413191e-06
3.8812073346083754069e-06
1.0566218373300718079e-05
2.7677347030196032894e-06
1.3739962536071959894e-05
1.9563938905094565291e-06
1.6314321930128496965e-05
1.3462363373870850739e-06
1.8300490990219734835e-05
8.7844492825118778502e-07
1.9736602533534136259e-05
5.0810325641677071242e-07
2.0657883658997929155e-05
2.0436115772519464264e-07
2.1084817892621651264e-05
-5.4167680466171361718e-08
2.1017988412351554332e-05
-2.8464226831631885061e-07
2.0437551721922184557e-05
-5.0653041625583586969e-07
1.9301269256003656256e-05
-7.4158537974567066308e-07
1.7547933116806204698e-05
-1.0208138377005692401e-06
1.51088402517838448e-05
-1.3890279835049842416e-06
1.1941763321029696967e-05
-1.9094871289512874485e-06
8.1146275355248231246e-06
-2.6592602238148960067e-06
3.9936391569858289584e-06
-3.7185796576020757465e-06
6.6741923884004859693e-07
-5.0974217009859650312e-06
-5.1662197812640678687e-06
4.1259295068488657701e-06
1.461745599476358882e-06
1.1133584298040083308e-05
-1.5900734191084300224e-06
1.700901831092195454e-05
-1.9942266223371103376e-06
2.1485470248029960423e-05
-1.7087173828165035469e-06
2.4826832688903851105e-05
-1.3849688168221825223e-06
2.7283692236910123748e-05
-1.1106234564928905547e-06
2.905391458368596693e-05
-8.9177752682214921796e-07
3.027381279777276117e-05
-7.1179489133259892548e-07
3.1028382026362064138e-05
-5.5020788266284673929e-07
3.1363247470910081297e-05
-3.8903292306061801759e-07
3.1291425490184036418e-05
-2.1282016542693487247e-07
3.0792653657280720156e-05
-7.7585928607826602081e-09
2.9811634547430533517e-05
2.3943362908952508537e-07
2.8247812830672119948e-05
5.4300776175705668135e-07
2.5941133954145679331e-05
9.1765083432148137208e-07
2.2658172162487979693e-05
1.37347468407199031e-06
1.8106740428415969739e-05
1.8921715724985731949e-06
1.2023293116947753376e-05
2.3648676985632759971e-06
4.682730079098070771e-06
2.2431413397546782923e-06
-4.8348971583453070993e-07
2.143481482035936657e-05
3.1374939326806137996e-05
3.5983777057552510494e-05
3.8734329949307756279e-05
4.0500395770094873519e-05
4.1672642432096374931e-05
4.2462583468382279935e-05
4.2981222564842627883e-05
4.3287727076035385798e-05
4.3411861580690481099e-05
4.3362664968147117633e-05
4.3130324356989985907e-05
4.2682785908199164524e-05
4.1955639758487363984e-05
4.082758165378991207e-05
3.9064691100414781057e-05
3.6203623759065753059e-05
3.1217026641867622462e-05
2.0812014954904708899e-05
)
;

boundaryField
{
    movingWall
    {
        type            calculated;
        value           nonuniform List<scalar> 
20
(
-1.9973069217442385691e-05
-1.1530197822744079575e-05
-6.603064201495413041e-06
-4.459270145695059391e-06
-3.1510346018653839497e-06
-2.282870192928772118e-06
-1.6817187039446167614e-06
-1.2304341200606924553e-06
-8.5671245298860015832e-07
-5.1316739145572891905e-07
-1.6362344586676130581e-07
2.2458214301556717665e-07
6.8697215806669363676e-07
1.270153930958925884e-06
2.0457089159700153557e-06
3.1363652110895638459e-06
4.7532389124179448914e-06
7.3514648373328611539e-06
1.2648153047763008885e-05
2.0328525239876012512e-05
)
;
    }
    fixedWalls
    {
        type            calculated;
        value           uniform 0;
    }
    frontAndBack
    {
        type            empty;
    }
}


// ************************************************************************* //
