/*--------------------------------*- C++ -*----------------------------------*\
| =========                 |                                                 |
| \\      /  F ield         | OpenFOAM: The Open Source CFD Toolbox           |
|  \\    /   O peration     | Version:  2412                                  |
|   \\  /    A nd           | Website:  www.openfoam.com                      |
|    \\/     M anipulation  |                                                 |
\*---------------------------------------------------------------------------*/
FoamFile
{
    version     2.0;
    format      ascii;
    arch        "LSB;label=32;scalar=64";
    class       volVectorField;
    location    "0.8";
    object      U;
}
// * * * * * * * * * * * * * * * * * * * * * * * * * * * * * * * * * * * * * //

dimensions      [0 1 -1 0 0 0 0];

internalField   nonuniform List<vector> 
400
(
(0.00019469017067649888866 -0.00019233693620924056694 0)
(4.8677734864487195651e-05 0.00012522343770079928768 0)
(-0.001118335644951724871 0.00050131074266693189528 0)
(-0.0030889912661023490557 0.00075824102910499141354 0)
(-0.0055239539484330203375 0.0008808028423686638372 0)
(-0.0080963489313160552641 0.00088522444517374660085 0)
(-0.010520971245619265 0.00079375172754464267885 0)
(-0.012565723799503254396 0.00062874496094085649198 0)
(-0.014053830384436909184 0.00041061453006243872101 0)
(-0.014862309561804783881 0.00015821300340172116334 0)
(-0.014921491373384429546 -0.00010982780767803133936 0)
(-0.014216988090547062751 -0.00037371933509458500535 0)
(-0.012793847374604691569 -0.00061146851165225419612 0)
(-0.0107618073619542131 -0.00079839021409341373765 0)
(-0.0082999169474445109312 -0.00090741851336057757684 0)
(-0.0056576155582657829471 -0.00091082323105554053536 0)
(-0.0031469904395427105055 -0.00078432854089368697972 0)
(-0.0011215139390876982094 -0.00051436031863974008334 0)
(6.529932226424821828e-05 -0.00012358706936950203956 0)
(0.00020326306867675530423 0.00019953488652545186199 0)
(-0.00010068757277782139532 -6.9592921498169430915e-05 0)
(-0.0014718585640356774726 0.0014932353315095184959 0)
(-0.0049713887988934264348 0.0031211105836016685838 0)
(-0.010045422813880211521 0.0042558443630900172003 0)
(-0.016014908179452846254 0.0047961536808866066933 0)
(-0.022214086141682472253 0.0047729007883249557204 0)
(-0.028020425834511260288 0.0042654262987697763934 0)
(-0.032902886016782421919 0.0033711441292893339766 0)
(-0.036446403572985168473 0.0021912635352728648125 0)
(-0.038359828661005519745 0.00082751086292176783809 0)
(-0.038480679147706621512 -0.00061585498664389060064 0)
(-0.036781239904430947096 -0.0020286954675845045998 0)
(-0.033376281231881889389 -0.0032926454148005396966 0)
(-0.028530412166438638699 -0.0042815219601152754159 0)
(-0.022661127447691827713 -0.0048662165705384615583 0)
(-0.016330327476429019884 -0.0049267157951560112614 0)
(-0.010210086275962959243 -0.0043747903100018574463 0)
(-0.0050169896440614824423 -0.0031897209939901242058 0)
(-0.0014607690997452825628 -0.0015018371464372019981 0)
(-8.9735308981310745726e-05 8.9723578559674881105e-05 0)
(-0.00047998654637546099653 0.0010597477148941497269 0)
(-0.0032139433823317356369 0.0050059727797317453424 0)
(-0.0089955874815671812983 0.0086874879329230988295 0)
(-0.016800832589448304322 0.01122560059321694656 0)
(-0.025661747725151042021 0.012393306830244785882 0)
(-0.034697725048150697413 0.012224441959426532098 0)
(-0.043077182438060933334 0.010878416725717749911 0)
(-0.050081719028347668199 0.0085744896128036405397 0)
(-0.055145885579883278937 0.0055561756069771543048 0)
(-0.057871937828901473533 0.002078180586886946811 0)
(-0.05803858893414463177 -0.0015942183570196212256 0)
(-0.055609811865134452236 -0.0051815055169062568252 0)
(-0.050744232807756348147 -0.0083878316999097778106 0)
(-0.043802910896532348817 -0.010905319095877183053 0)
(-0.03535082059427577944 -0.012429350430723596146 0)
(-0.026142712074154920293 -0.012690259232443558066 0)
(-0.017072907158277972339 -0.01150703465047739002 0)
(-0.0090909032666589145721 -0.0088648442073864831825 0)
(-0.0032130243750648772479 -0.0050505011932407001263 0)
(-0.00046752083271919922828 -0.0010289376278778158795 0)
(-0.00080504533724424175677 0.0031137426000545477892 0)
(-0.0048027954313047196977 0.010454353081260333094 0)
(-0.012741779857384442909 0.016727061331044092846 0)
(-0.023055678549958390916 0.020908072525374080813 0)
(-0.034466774787454836082 0.02271025249259807019 0)
(-0.045912632958333872424 0.022204813687918097814 0)
(-0.056413472076630929997 0.019659960742189976773 0)
(-0.065130993786829266545 0.015447465323670561341 0)
(-0.071409546981693716727 0.0099873814419867961573 0)
(-0.074789000031267399704 0.0037245129819982012061 0)
(-0.07501238900758702699 -0.0028757402218796699125 0)
(-0.072034815149314895821 -0.0093238689597669871523 0)
(-0.066034041211465027699 -0.015104679478848175717 0)
(-0.057420722469638529883 -0.019686100455263443043 0)
(-0.04684377334663278325 -0.022546222101657908965 0)
(-0.035180653173615919482 -0.023226429236282208901 0)
(-0.023486991536149578325 -0.0214165167416327136 0)
(-0.012916246019227823477 -0.01706926286481953714 0)
(-0.0048208515203125162918 -0.010565640731850506687 0)
(-0.00079121202049801594991 -0.0030749485466512751185 0)
(-0.0010813517624795958814 0.0059663927562806674809 0)
(-0.0062317843947255835771 0.017655232150389797707 0)
(-0.016191152977961215803 0.026990786042344630524 0)
(-0.028838919767270324718 0.032958692705477667106 0)
(-0.042570505135665133445 0.035316602208003165797 0)
(-0.056149314868965197189 0.034241734401901799401 0)
(-0.068479264251146601539 0.030156949684779586068 0)
(-0.078645496582673710129 0.023618597348141395775 0)
(-0.08594468820512274343 0.015247017141019329756 0)
(-0.089886744679331012642 0.0056958305353214649241 0)
(-0.090195221669611955195 -0.0043533021799754710243 0)
(-0.086813256079122269604 -0.014184906444303037668 0)
(-0.079915355470889501421 -0.023045970286651597247 0)
(-0.0699233837844455558 -0.030156386807048601861 0)
(-0.057522836978837199595 -0.034744867058064933529 0)
(-0.04366841949558064595 -0.036120630030959728629 0)
(-0.029547434987392040551 -0.033786526358974673656 0)
(-0.016517369121196359 -0.027585717222671887056 0)
(-0.0062977709925637987906 -0.017888624412881252296 0)
(-0.0010710121872281154823 -0.0059302719576486105646 0)
(-0.0013321053308564996271 0.0095362458530747727659 0)
(-0.0075605908504290724945 0.026496431787642063527 0)
(-0.019426386566232425879 0.039358302978369445746 0)
(-0.034257177818861721252 0.047231577850747878677 0)
(-0.050114461113141835213 0.05003169399943442619 0)
(-0.065594714474907389601 0.048130611026927318241 0)
(-0.07951142061679306039 0.042167797489655718668 0)
(-0.090909368774819421244 0.032922909006172153268 0)
(-0.099074029031824842328 0.02123724829948554424 0)
(-0.10351352373508972138 0.0079812792675407993881 0)
(-0.10394576313225127595 -0.0059463188993472875302 0)
(-0.10029821242462065578 -0.019605027097589679957 0)
(-0.092720745802095105859 -0.032000592636298938465 0)
(-0.081610629429062456208 -0.042090652232361469576 0)
(-0.067646621718123606248 -0.048823077215878821211 0)
(-0.051820220713533288182 -0.051220788083536791802 0)
(-0.035425213630171689672 -0.048520005651502710886 0)
(-0.020023696205840393891 -0.040350665811899222302 0)
(-0.0077274461033689885101 -0.02695509655113352207 0)
(-0.0013362041027643730903 -0.0095342779607361406724 0)
(-0.001578459992842866453 0.013784950257117609129 0)
(-0.0088516612909797093289 0.036899967633358003727 0)
(-0.022536571871681055496 0.053715955575902613051 0)
(-0.039399307210020689807 0.063569144970874472134 0)
(-0.057166230055384147091 0.066655571914936345701 0)
(-0.074284384930359284582 0.063647110572856477329 0)
(-0.089511129766874461544 0.055474582448239405374 0)
(-0.10189318275115237522 0.043184383183360895708 0)
(-0.11074554145768718272 0.027855526236040741017 0)
(-0.11560576665858057765 0.010572360982222606465 0)
(-0.11620212500079642182 -0.007564225055440965996 0)
(-0.11244391420412055971 -0.025406937231336062383 0)
(-0.10443468266189649685 -0.041732881183833892003 0)
(-0.092508512156728214815 -0.055234449803646834543 0)
(-0.077287897822337192633 -0.064550067704787439382 0)
(-0.059750614974110834166 -0.068353918744587183198 0)
(-0.041258446665267185793 -0.065516364782354161167 0)
(-0.023564985763056083695 -0.055324814182672973906 0)
(-0.0091953617978742414885 -0.037756525579876701326 0)
(-0.0016142612744598273423 -0.013883319487710526347 0)
(-0.0018383642652101829084 0.018710204786320766557 0)
(-0.010156915488461508087 0.048819850069206575938 0)
(-0.025583609402267972616 0.069945251330693500313 0)
(-0.044289692055167223517 0.081769766482550285125 0)
(-0.063669648059648503713 0.084916517225609985942 0)
(-0.082056336755365902325 0.080482822638075351973 0)
(-0.098204443027887902695 0.069777323821700515394 0)
(-0.1112211644207603406 0.054158420586309367895 0)
(-0.1205041717446570515 0.034952665890142224636 0)
(-0.12566061326864669256 0.013441768497160050747 0)
(-0.12645117106160225218 -0.0091039746605095644982 0)
(-0.12276770887804050458 -0.031368968251139210668 0)
(-0.11464524667341706443 -0.051934227868310887943 0)
(-0.10231009746172871344 -0.069240433074885893161 0)
(-0.086265606265266928099 -0.081596944881545022121 0)
(-0.067403914821764221443 -0.087263746903559660795 0)
(-0.047089093690655808855 -0.084627865411484065605 0)
(-0.027227465001948381734 -0.072472276491651388408 0)
(-0.010771579607049263164 -0.050332730091784447235 0)
(-0.0019291004740993927726 -0.019022463980911504672 0)
(-0.002128705997670505938 0.0243386539726261307 0)
(-0.011517096208244870237 0.062229116380825837129 0)
(-0.028588260134242010624 0.087897647044766519242 0)
(-0.048858238241703294547 0.10154614466275359297 0)
(-0.069402172271427836625 0.10441585254338497935 0)
(-0.088501518365284428946 0.098183525276472380372 0)
(-0.10499097103532950559 0.084633544286280781854 0)
(-0.11812097670622961898 0.065479400168184542785 0)
(-0.12744286184821623786 0.042293440095807481593 0)
(-0.13268600985410228255 0.016520624709903768829 0)
(-0.13367424862069809954 -0.010453617750155222779 0)
(-0.13028816698102207994 -0.037207995603946698859 0)
(-0.12247316571261085416 -0.062185474218669184454 0)
(-0.11029728186705101134 -0.083612937417164662213 0)
(-0.094065365601703476717 -0.099469707040579502522 0)
(-0.074482721741274293681 -0.10754184070039832233 0)
(-0.052809749439605424559 -0.10560002699621294509 0)
(-0.031025507990783282586 -0.091718375540687319125 0)
(-0.012504531821326398539 -0.064747595882675534895 0)
(-0.0023023687974336537812 -0.025035023172957193704 0)
(-0.0024703250501480903192 0.030722486062375896354 0)
(-0.012968869059349644179 0.07709701417217723618 0)
(-0.03152397031039180092 0.10734493740865863609 0)
(-0.052911427213272722858 0.12245288606329417236 0)
(-0.073923900329505798368 0.12454340605007245546 0)
(-0.092897991642266350421 0.1160639394468846175 0)
(-0.1088715885573217218 0.099381103137282850168 0)
(-0.12135089548868141507 0.076597087710749495182 0)
(-0.13013120756729015803 0.049509630534640296229 0)
(-0.13512915004431333421 0.019670166673958305176 0)
(-0.13627139875677446446 -0.011499965162063746985 0)
(-0.13344086055420092962 -0.042564003623078390526 0)
(-0.12647724026397433317 -0.071916056815928386392 0)
(-0.11523850254253983905 -0.09764111993610476159 0)
(-0.099737869353210092949 -0.11741988126341700027 0)
(-0.080360107278775044781 -0.12852546731489455922 0)
(-0.058103013923428745158 -0.12797275162155671846 0)
(-0.034874444343308982908 -0.11287248858344910152 0)
(-0.014419242118408436351 -0.081046146937744117933 0)
(-0.0027568061375468975831 -0.032032342020743079236 0)
(-0.0028961897262939611392 0.037944634409052047097 0)
(-0.01455529984182921642 0.093360667415626388821 0)
(-0.034303945562693803628 0.12790710934481513972 0)
(-0.056082566660004141978 0.14378594997441968006 0)
(-0.076495397561176695089 0.14437001225814619088 0)
(-0.094110404072811335019 0.13310948925979920743 0)
(-0.10834415253531884393 0.11305727167440580982 0)
(-0.11910144666823160864 0.086714582212390756144 0)
(-0.12652591079213104663 0.056055150758621094531 0)
(-0.13079250366291750307 0.022652218324173870045 0)
(-0.13197569086347052392 -0.012142493611781171592 0)
(-0.12998266381646256251 -0.04699494368441716613 0)
(-0.12454272739618127419 -0.080373640642212473839 0)
(-0.11526144140452083964 -0.11033666911511269548 0)
(-0.10176502811388619951 -0.1343473483730685536 0)
(-0.083957148378065171723 -0.1491718443138237149 0)
(-0.062352052577181321658 -0.15094573562810228995 0)
(-0.038547964930103241488 -0.13551578636757313778 0)
(-0.016513642293304049702 -0.099193726216629626857 0)
(-0.0033212978772293112913 -0.040146443277858115395 0)
(-0.0034640590467205096409 0.046138278684320688239 0)
(-0.016333903656070222765 0.11088426690564490151 0)
(-0.036738231188279790729 0.14894211868819609568 0)
(-0.057725800648007016824 0.16444130540120677209 0)
(-0.07592812626934322684 0.16251338926763297943 0)
(-0.090426661016108536573 0.14787047374260064991 0)
(-0.10125135190537898344 0.12432530297722968471 0)
(-0.10886811898070368476 0.09474086360351249847 0)
(-0.11387018447766905638 0.061174587330840128618 0)
(-0.11675212777563209743 0.025105471398937023036 0)
(-0.11777634217101135006 -0.012312449807528857634 0)
(-0.11690308115553843527 -0.049987409275368765993 0)
(-0.11376631228480423019 -0.086615469067509581746 0)
(-0.10770460548030774683 -0.12039018237893187036 0)
(-0.097884399486985809724 -0.14870738133029134942 0)
(-0.083563189538398682799 -0.16791288985888810914 0)
(-0.064493050994213291238 -0.17320089171172134423 0)
(-0.041596561152611163936 -0.15883881007627873028 0)
(-0.018744614787195270494 -0.11898652583887150969 0)
(-0.00403773522090345241 -0.04952775106528136545 0)
(-0.0042736455277043745166 0.055525156694398065949 0)
(-0.018365328828348577439 0.12937919427214927826 0)
(-0.03841209725535447983 0.16936150919452605534 0)
(-0.056688935255686780101 0.18271137902982581558 0)
(-0.070308141495138004595 0.17697733951918181994 0)
(-0.079290722134200214422 0.15836505660606842172 0)
(-0.084560867424760086108 0.13143296409751864529 0)
(-0.087294022392818082512 0.099283122899285189411 0)
(-0.088595168758510839391 0.063906052868299506597 0)
(-0.089300996681674127409 0.026541075907230118197 0)
(-0.089878885887076376271 -0.011993066547474970016 0)
(-0.0903719659282536808 -0.050989695619748851008 0)
(-0.090362498078521785727 -0.089538514464896912237 0)
(-0.088960889160962369759 -0.12617083599650710801 0)
(-0.084865831146937992235 -0.1584466875308200573 0)
(-0.076569715634398030635 -0.18250386205137719697 0)
(-0.06276323452661214386 -0.19267268303523274464 0)
(-0.043182772656946588619 -0.18139733723320133896 0)
(-0.020982919188475272765 -0.13990147819751222458 0)
(-0.0049670407024606285512 -0.060345045564954014061 0)
(-0.0054759623434523611862 0.066437396601644410632 0)
(-0.020623585566390364998 0.14817825336323589558 0)
(-0.038371188835816749663 0.18727286867939338388 0)
(-0.050840691510223336158 0.19597288563558243335 0)
(-0.05649831206819148216 0.18496722422331984825 0)
(-0.05687878428980548684 0.16202268199187327968 0)
(-0.054062052103844543405 0.13224398077733562351 0)
(-0.049992863660944464321 0.098717034889583679669 0)
(-0.046250036350371573346 0.063147981632449806666 0)
(-0.043953685161792571678 0.026376344586221928123 0)
(-0.043744405417563185512 -0.011234369168832285951 0)
(-0.045768006366412518349 -0.049474816445360406125 0)
(-0.049632801220838414225 -0.087971562796396562955 0)
(-0.054341819649096789746 -0.12580631103394651626 0)
(-0.058242138297877013575 -0.16100973986190142417 0)
(-0.059078836509580734404 -0.18989048659271179353 0)
(-0.054263159747771669283 -0.20624515178114913305 0)
(-0.041736854416662555467 -0.20070252162839941068 0)
(-0.022874471067986238554 -0.16077275239771429693 0)
(-0.0061774748487392608029 -0.072736204693564399104 0)
(-0.0072154930186340178466 0.079240043648021271649 0)
(-0.022642635225972276847 0.1656597513480317363 0)
(-0.034338456530579437864 0.19930289236295339883 0)
(-0.036113157284208392828 0.20024087426533190848 0)
(-0.029277452783923484103 0.1827381949578920084 0)
(-0.017467572122922016969 0.15575267787399985076 0)
(-0.0039872511050305890767 0.12442173814006821098 0)
(0.0086090800270489011708 0.091395643450931013385 0)
(0.018488630601262243808 0.057830573188615168323 0)
(0.024433675778188841676 0.024029863100311493751 0)
(0.025736586136065435493 -0.010155554873055000487 0)
(0.022153931849476688615 -0.045045615606078531767 0)
(0.013943523267494347187 -0.08086710383947147418 0)
(0.0019888048686938601672 -0.1174129212813939116 0)
(-0.012008203972334192608 -0.15351436901576215321 0)
(-0.025330608061577199186 -0.18619685883258232928 0)
(-0.034180687944226767483 -0.20942512814162358992 0)
(-0.034213866462716527317 -0.21258010945523378443 0)
(-0.023433512974961788478 -0.1791367277065649688 0)
(-0.0076529524244067122229 -0.086620838233018443431 0)
(-0.0092934194488747384061 0.094508571087958667678 0)
(-0.022410007963165695655 0.17856238047526579171 0)
(-0.020891495294249752546 0.19993018991277425322 0)
(-0.0046831516791740711303 0.19002145388637359247 0)
(0.020017042912176929992 0.16590959024804782795 0)
(0.047379142781639627113 0.1364961657774083903 0)
(0.073345084600591525792 0.10602573252200005183 0)
(0.095300077860055620871 0.076171274148864764886 0)
(0.11162736970974719564 0.047301582512306636352 0)
(0.12134371448771398561 0.019140667878875309432 0)
(0.12386082088052771666 -0.0089113549291609476383 0)
(0.11887953400889887667 -0.037602281109090175681 0)
(0.10640795678186977524 -0.067676071076291047235 0)
(0.086913321915024988051 -0.099652502175392621009 0)
(0.061635101518194720938 -0.13339860702489866884 0)
(0.033069491802341879905 -0.16726921046158793605 0)
(0.0055323642377982495261 -0.19651077933064672876 0)
(-0.014538950003517916998 -0.21078984789548535494 0)
(-0.019945001246892652552 -0.19063996825332099605 0)
(-0.0089166586365887201548 -0.10175891199474101922 0)
(-0.0097710646425658506664 0.11383113837233574395 0)
(-0.013344385945369185986 0.18130720211755685378 0)
(0.014227694130521320245 0.18142100608182779031 0)
(0.057906016430598609979 0.15923055859844079118 0)
(0.10512197923808509759 0.13090749118464339862 0)
(0.14942970967271756999 0.10272153807568415451 0)
(0.18749463278134215205 0.076799108641616542492 0)
(0.21767793917649286284 0.053386410537441648938 0)
(0.23926301049635453899 0.032016294222029943739 0)
(0.25191563226763585837 0.011973125644226811914 0)
(0.25538822427371032919 -0.0075698360770748169407 0)
(0.24940070121910518086 -0.027526252561167342814 0)
(0.2336331913046881259 -0.048884739542241290033 0)
(0.20784083016477622463 -0.072664010657935568238 0)
(0.17217561889627500116 -0.099716183726298729395 0)
(0.12783122227699680873 -0.13012706904311624467 0)
(0.077985185580915439285 -0.16173870926640815382 0)
(0.029220195119797849614 -0.18730933549027942164 0)
(-0.005269973503332784151 -0.18853236608394396967 0)
(-0.0076556504787151126445 -0.11826334402684089697 0)
(0.0011130855777547327135 0.12888577384210928023 0)
(0.024397461508583531686 0.15478090114163359226 0)
(0.097023763844770752329 0.12867554860671112649 0)
(0.17628059506757226549 0.099900874113659332565 0)
(0.24581042180992726531 0.075142973089968007061 0)
(0.30330074532391071429 0.054895417432739637698 0)
(0.34878403393504192609 0.03851428861937615522 0)
(0.38285933481170952852 0.02503367667335363797 0)
(0.40631645112889569482 0.013576176409250500371 0)
(0.41975412846600740346 0.0034106284432938319476 0)
(0.42340189070546346839 -0.0061199417061825380632 0)
(0.41707459473702723773 -0.015682793284556965224 0)
(0.40014816722212320776 -0.026055614346762609457 0)
(0.37155881371456883633 -0.038209214746758424219 0)
(0.32994103588038936614 -0.053375464458439103588 0)
(0.27406253041707601126 -0.072961121801474432269 0)
(0.20340729066060939112 -0.097966443882265316634 0)
(0.1198630482334720887 -0.12745382330555313222 0)
(0.039292533354465510043 -0.15281250317843575459 0)
(0.0056962313254590082184 -0.12542852309754540241 0)
(0.06999744263290391677 0.060664216655007104084 0)
(0.15372346629535307838 0.031271774904902051306 0)
(0.28268734275625573282 0.0083369777115439389764 0)
(0.38995202986817523172 -0.0010218138551421613973 0)
(0.46761010386785439863 -0.0048078917908261856878 0)
(0.52447212233069551157 -0.0064318085794183143394 0)
(0.56606275924170845748 -0.0071205838398387599417 0)
(0.59554446361951141053 -0.007300210832624018896 0)
(0.6150287367125819582 -0.0070730806572069362601 0)
(0.62580410072928738252 -0.0064234831841222571683 0)
(0.62844995872498965461 -0.0053048493301990360185 0)
(0.62290109679094762818 -0.0036780680918177396585 0)
(0.60842561617480739322 -0.0015542746794228561036 0)
(0.58350186866575859401 0.00096168514996954512948 0)
(0.5456177533719188677 0.003583108962457567416 0)
(0.4910396639574277633 0.0056299390658916112148 0)
(0.41379204770668298607 0.005527923600163750853 0)
(0.3045137484181588694 -0.00030090426660718582255 0)
(0.16898568218112886008 -0.018889986526144209034 0)
(0.072228945546817024947 -0.0458448013020849518 0)
(0.39775364428230547409 -0.21080951751716914266 0)
(0.55408080201777731855 -0.18974770522511014148 0)
(0.67675002346404500297 -0.13632837188557356267 0)
(0.75171701501216037222 -0.098457196957429021777 0)
(0.79545131539272240229 -0.072250129386284916988 0)
(0.82360239031951920641 -0.053765414104845629661 0)
(0.84265461951940467955 -0.040387418502769917295 0)
(0.85544922169191583983 -0.030113549042812732398 0)
(0.86353831018797777563 -0.02150833980593695044 0)
(0.86777159080451837792 -0.013540986329421132381 0)
(0.86852338214098745439 -0.0054007071529706728377 0)
(0.86578841656530625137 0.0036400399663017277314 0)
(0.85916949077863535855 0.014353020900007170541 0)
(0.84775097178266234366 0.027694757912319026283 0)
(0.82980580404257164862 0.0450270415460911691 0)
(0.80215128185128470317 0.068428602406725241858 0)
(0.75797572745343277933 0.10102206908198016477 0)
(0.68093053364883660006 0.14774030491674064458 0)
(0.54924523511888367899 0.21282941384257791917 0)
(0.36766978477816658621 0.23264477949699677306 0)
)
;

boundaryField
{
    movingWall
    {
        type            fixedValue;
        value           uniform (1 0 0);
    }
    fixedWalls
    {
        type            fixedValue;
        value           uniform (0 0 0);
    }
    frontAndBack
    {
        type            empty;
    }
}


// ************************************************************************* //
