/*--------------------------------*- C++ -*----------------------------------*\
| =========                 |                                                 |
| \\      /  F ield         | OpenFOAM: The Open Source CFD Toolbox           |
|  \\    /   O peration     | Version:  2412                                  |
|   \\  /    A nd           | Website:  www.openfoam.com                      |
|    \\/     M anipulation  |                                                 |
\*---------------------------------------------------------------------------*/
FoamFile
{
    version     2.0;
    format      ascii;
    arch        "LSB;label=32;scalar=64";
    class       volScalarField;
    location    "0.1";
    object      p;
}
// * * * * * * * * * * * * * * * * * * * * * * * * * * * * * * * * * * * * * //

dimensions      [0 2 -2 0 0 0 0];

internalField   nonuniform List<scalar> 
400
(
-0.039753508968075904062
-0.044544490719767196318
-0.050091766458811436136
-0.053971447976552899828
-0.054843922362948022142
-0.05215416029401084147
-0.045915112511550774943
-0.036531290520801604216
-0.024671563002271967857
-0.011184746191633239409
0.0029599428382379262478
0.016725769168543541676
0.029067183884690300094
0.039004818694776587085
0.045724843578168007652
0.048709569351332589193
0.047905109889841160364
0.043914690493222302559
0.0381996854974452002
0.033314393498368774504
-0.035003984670526948342
-0.039928680431738604317
-0.044217787388904632173
-0.04673708876690380043
-0.046876755230064591495
-0.044248848125293172018
-0.038838196847689770985
-0.030938128254720639182
-0.021059975932979767971
-0.0098715748804429816893
0.0018512710418832364987
0.013273381676896889997
0.023555279644345263057
0.031920310464762083336
0.03773625167299136246
0.040614966364849715286
0.040536370248250179482
0.037926858979403080263
0.033495422165925853308
0.028482369412277320359
-0.029132890161569769544
-0.035894798761271273779
-0.040510705447571342119
-0.042757238341610714905
-0.042716153814949739398
-0.040199675495983654139
-0.035246169028890661501
-0.028132711328513169274
-0.019302302106849134056
-0.0093245357580055924368
0.0011365748862279092049
0.011360726970231372485
0.020617616531610549052
0.028223548148076347403
0.033607141942852768179
0.036388360715365046516
0.036486898844028822775
0.034125880188788315639
0.029324102634977176202
0.022423817254059341675
-0.024239846744500605918
-0.033448186004437815977
-0.039144560472398809425
-0.041694955714783973888
-0.041750405663970029113
-0.039306724052921550305
-0.034488304349397855275
-0.027607940339011018127
-0.019097459436100746449
-0.0094862967062867148416
0.00061359919177940067374
0.010533002466987292228
0.019580668815878235489
0.027088967501810494454
0.032466849900609953683
0.035268074768127641305
0.035304624666362575958
0.0326094837823678943
0.026643147320630045788
0.017195721054126110461
-0.02168030097409586951
-0.033363894251387603285
-0.040294599347326078009
-0.043267740064971714486
-0.043414628236957034102
-0.040891918597301103733
-0.035914583115581738548
-0.028849351598326987423
-0.020142122127033351003
-0.010310770252707544478
5.3920538842484926284e-05
0.010300045213929714949
0.019737901349198113538
0.027674625717141555781
0.033456595634260823113
0.036532880747100128505
0.036584686858348584859
0.033465611195908989695
0.026161225267830958557
0.014078943180679251088
-0.022446950264969824096
-0.03652160785536695542
-0.044653555725954335864
-0.047981033066638555107
-0.048061786403043288418
-0.04519940634461198925
-0.03970119433070153081
-0.031998048439143472743
-0.022565211867955330821
-0.011927051499211778832
-0.00067328944134635506247
0.010538819060128889332
0.020994907363055530236
0.029946524696363129026
0.036643829787271237075
0.040398020138747672836
0.040734302272653642729
0.03732143008095108877
0.028705223126364729641
0.013994562156902418462
-0.027398252214172857943
-0.043772965283264249348
-0.052969889244391464567
-0.056443069317418000097
-0.056166779651660891926
-0.052594307862801753517
-0.046131754833131317917
-0.037282192341719214146
-0.026558793521627623718
-0.014501187086412521687
-0.0017075110229203493105
0.011148101622984511738
0.023311153899525115241
0.033956204226411941527
0.042208574642613849726
0.047206738132291946319
0.048283644083352277032
0.044892090776076754022
0.035115150501028737084
0.017775328926351106895
-0.037429348313766173939
-0.056012961105387053251
-0.066037455360126603998
-0.069300525159310469303
-0.068231403535350079737
-0.063457246667684971686
-0.055497274587902808984
-0.044933877342885883421
-0.032319779211126761775
-0.01820783155928253419
-0.0032010635684040418016
0.01201194890048007391
0.026634678848712862315
0.039754524214348933853
0.05034937059506441881
0.057347240765172793897
0.059837497454685528719
0.056993452189273097197
0.046347826991480323144
0.026379899406797049227
-0.0536037335157802039
-0.0742819504217886728
-0.084765700800900081746
-0.087282199598861270884
-0.08480794023306896523
-0.078193483342126057778
-0.068094777514015769615
-0.055179638074887044086
-0.040033836182118524849
-0.023208820655609443268
-0.0052936961453765585262
0.013027718106592865374
0.030931847437344003188
0.04742360736621139411
0.06132017601473636198
0.071300408867472506169
0.076142527575645574389
0.07463920340507818052
0.063614310947511812366
0.04107368407588479764
-0.077276441284353944439
-0.09985855192466228103
-0.11022294210158646577
-0.11119573255764662878
-0.10646222427552334833
-0.09717580560982319593
-0.084161169678241110059
-0.068173615218846086994
-0.049813814334155784302
-0.029601209626721348284
-0.0080734286229213487324
0.01413045238998341703
0.036196861665315424594
0.05707443924461230722
0.075423510129309270789
0.089641315620457684421
0.098114593874959646347
0.09911253091765341583
0.088508108618646413879
0.06360524847022716588
-0.11025707370233964189
-0.13437147306288332871
-0.14367190617236580419
-0.14189695386075251715
-0.13369893979038735554
-0.12064628815461972411
-0.10376706720083071767
-0.083894210606103677974
-0.061606384450457442326
-0.037338864868693401322
-0.011516870606168728292
0.015331023152755404726
0.042467171134270877142
0.068841601288207834863
0.092992240703191189621
0.1130237490119671423
0.12684984585710928906
0.13203243353605817467
0.12315066098214401402
0.096425520144042264903
-0.15508504604474188104
-0.17995397020776335295
-0.18659130789548766804
-0.18021804531190022125
-0.16683798251444051375
-0.14857174426825311975
-0.12667125533749026833
-0.10200884866411753793
-0.07507313088908820764
-0.046133468359662144209
-0.015413160029807729604
0.016765973626994293277
0.049843993449199902601
0.082873607890374734186
0.11435508235098040819
0.14213744751889087481
0.16360475126058751649
0.17540249139619709662
0.17036547137982288591
0.14300912738753693287
-0.21557270551924481716
-0.23948543280983053405
-0.24066484877849667057
-0.22682231134547722884
-0.20581615066772063205
-0.18043951616582756814
-0.15213492408040535375
-0.12171599081627110239
-0.089462043855875264531
-0.055354825371182643512
-0.019293111496454705411
0.018737287499770584331
0.058496526703545007053
0.099297125449208351045
0.13976219571714804113
0.17761169905213211595
0.20971890534236808934
0.23162878922388643876
0.23391823273295819785
0.20841384569216298006
-0.29800349649580304412
-0.31708308426597070495
-0.30778753851260232111
-0.28200939326695195764
-0.249941714187839642
-0.21503321875869133017
-0.17874646449099912404
-0.14162190021390330674
-0.10352869145249933569
-0.063987421557963636287
-0.022415000102541753763
0.021698581197570405987
0.068615911043727759178
0.11813118764299918029
0.16925665918419102729
0.2198624286929725391
0.26649830727686513177
0.30356613360551282232
0.31897614000017698865
0.30040808344234531946
-0.4131750920478574618
-0.41860181543260754911
-0.38980862802656657262
-0.34528765778558112576
-0.29750404309522099355
-0.25015626377855393336
-0.20427050708612567997
-0.15969396340386723954
-0.11556544306783642084
-0.070712339283704531145
-0.023885183866344195103
0.026098387205902726094
0.080212735066880563872
0.13901731217047172406
0.20231170036466653017
0.26863362211520741551
0.33471948944282170491
0.3941560640459756959
0.43235784322862452767
0.43109723667304045147
-0.57759586939941498507
-0.54946040794794404061
-0.48583983999574470447
-0.41331281320462515128
-0.34433795258372057457
-0.28171445474986928081
-0.22513377874676057666
-0.17303410971922261741
-0.12337864144813388834
-0.074037559443849487728
-0.022921846026248058475
0.031974111412134249843
0.092528121929288983938
0.16036976761350973941
0.23660045482395852812
0.3212397624554758635
0.41219330316528018932
0.50327423326302600515
0.57958812463500297696
0.61686239084605687388
-0.81908565383255049763
-0.71116167383058959128
-0.58795918629196664007
-0.47721488875119538742
-0.38234908562153624434
-0.30300635264009651015
-0.23619478371252033977
-0.17793039293690199321
-0.12449129433008312984
-0.072589342036717866002
-0.019216398518467292522
0.038515617415306131754
0.1034832153902236207
0.17863180268808812046
0.26692615321609375334
0.37094999002959533341
0.49123437158191923801
0.62385890639909657995
0.76150518156294422223
0.88211624397693499944
-1.2385573109952479065
-0.93146318379580461677
-0.69981739128996478527
-0.53612552390421885917
-0.4102835113037641146
-0.313364188866316562
-0.23758071748000142431
-0.17514274898011911175
-0.12005339976916851175
-0.06772658467627012957
-0.0142562695022113127
0.044122709040378141343
0.11129769871501792033
0.19173799687525455715
0.29095675580144086947
0.4156515797900746656
0.57144466989610653851
0.76156533520985802976
1.0070442512833259752
1.3172999450225797435
-2.0742872171455122299
-1.2881488440323063394
-0.84630667022371852681
-0.60541989840723930971
-0.44174990977548211912
-0.32557599942126430603
-0.24104626117044639089
-0.17517193190113827805
-0.11918546017131403936
-0.067039323704428374628
-0.013929771640714846276
0.044541228761462610397
0.11327214883804595513
0.19831199587765904746
0.30827638005226160045
0.45586679245960526341
0.65691315098064628764
0.93536877047413347075
1.3867636773823610596
2.1302495264728604774
-2.6366586223244290466
-1.2819850345121441837
-0.73118867348785909765
-0.49310166423333895436
-0.34824356794077510058
-0.25224426415134254542
-0.18577669572290145261
-0.13583975568945005907
-0.094446671385325253745
-0.056387386992611171488
-0.017702735122938365042
0.025177578857558998576
0.076110240791827321605
0.14019506489528876791
0.22522645886494208067
0.34454376577858519815
0.52098183632146444211
0.80347204967664587194
1.3753573640224268093
2.6013272769825772635
)
;

boundaryField
{
    movingWall
    {
        type            fixedValue;
        value           uniform 0;
    }
    fixedWalls
    {
        type            zeroGradient;
    }
    frontAndBack
    {
        type            empty;
    }
}


// ************************************************************************* //
