/*--------------------------------*- C++ -*----------------------------------*\
| =========                 |                                                 |
| \\      /  F ield         | OpenFOAM: The Open Source CFD Toolbox           |
|  \\    /   O peration     | Version:  2412                                  |
|   \\  /    A nd           | Website:  www.openfoam.com                      |
|    \\/     M anipulation  |                                                 |
\*---------------------------------------------------------------------------*/
FoamFile
{
    version     2.0;
    format      ascii;
    arch        "LSB;label=32;scalar=64";
    class       surfaceScalarField;
    location    "0.1";
    object      phi;
}
// * * * * * * * * * * * * * * * * * * * * * * * * * * * * * * * * * * * * * //

dimensions      [0 3 -1 0 0 0 0];

oriented        oriented;

internalField   nonuniform List<scalar> 
760
(
9.7989299569099282903e-09
-9.7990381057702278225e-09
-2.3541216656261157605e-08
3.3341611646982532309e-08
-1.0201759446030974884e-07
7.847668332668023603e-08
-2.111775899962190386e-07
1.0916018174886077074e-07
-3.3471274457674808088e-07
1.2353390151901651135e-07
-4.5766683492921038769e-07
1.2295482538194285778e-07
-5.6744937249312449046e-07
1.0978339612942875682e-07
-6.541387737383418406e-07
8.66902387159930134e-08
-7.1047061044148196081e-07
5.6331073113785539079e-08
-7.3177261458763122489e-07
2.1301475810019396652e-08
-7.1599820591500147091e-07
-1.5774605184948866936e-08
-6.63872241233876495e-07
-5.2126659988985856866e-08
-5.791233332128283908e-07
-8.4749839748714285619e-08
-4.6873515406291342273e-07
-1.1038879933736558187e-07
-3.4310263733020910291e-07
-1.2563278558028169029e-07
-2.1591034840658581778e-07
-1.2719238589042142778e-07
-1.0345357053753936024e-07
-1.1245678605954631398e-07
-2.3108554155326740053e-08
-8.0345070597336023615e-08
1.0413165124922897286e-08
-3.3522175511498097081e-08
1.0412293631430246225e-08
-3.1728199147236738058e-08
2.1929633457420056546e-08
-1.566826654673151212e-07
1.5829722368581885341e-07
-3.6796057002464190611e-07
2.8975846055869535575e-07
-6.3915416556570325901e-07
3.8035617342399169906e-07
-9.3793077952482807471e-07
4.2231192581140528158e-07
-1.2323917853067739486e-06
4.1741729210082149652e-07
-1.4943034591561541049e-06
3.7169485948663457511e-07
-1.7006413710136610637e-06
2.9302809485979380832e-07
-1.8342390374208307369e-06
1.8992777092215790529e-07
-1.8840722194770565907e-06
7.1133900879814434014e-08
-1.8455122044391628275e-06
-5.4335157354078370526e-08
-1.7206520180801827926e-06
-1.7698778774799533178e-07
-1.5186809842811895409e-06
-2.8672193047168821903e-07
-1.2561567695144301335e-06
-3.7291349147832170875e-07
-9.5690233040337792834e-07
-4.2488699701514918483e-07
-6.5112140304600217775e-07
-4.3297271912980531932e-07
-3.7319108889784841052e-07
-3.9038649184756056294e-07
-1.5751183362153161831e-07
-2.9602437238322968459e-07
-3.1222225476776114187e-08
-1.5981265604841364969e-07
-2.0809730437320509039e-08
-7.9126618074341866658e-08
1.0105800337692743974e-07
-2.9954536284365732522e-07
3.7871451421859495473e-07
-6.3343975330519956676e-07
6.2365358519850210233e-07
-1.0417121257531803809e-06
7.8862996753821143256e-07
-1.480628006740716982e-06
8.6122962531928939319e-07
-1.907483387414739448e-06
8.442731823975906256e-07
-2.2842597000633883639e-06
7.4847032754706506958e-07
-2.5797002735449103597e-06
5.8846869340988781763e-07
-2.770372928000825253e-06
3.8060018195557929454e-07
-2.8412215649015554878e-06
1.4198228495484063226e-07
-2.785980245449651998e-06
-1.0957734586293147433e-07
-2.6076021184977437544e-06
-3.5536734960249310979e-07
-2.3186896783730891768e-06
-5.7563524931744498194e-07
-1.9417414677509262032e-06
-7.4986141503802120826e-07
-1.5088706419297082136e-06
-8.5775706993841920751e-07
-1.0605196259668955069e-06
-8.8132354244602467081e-07
-6.4263909172444401357e-07
-8.0826773904145636136e-07
-3.0190301037969494296e-07
-6.3676180168540594578e-07
-7.8796972751533653587e-08
-3.8291900407337388875e-07
-9.9606097794107013209e-08
-1.2101365635543791812e-07
2.2207288551103436534e-07
-4.316126608860628482e-07
6.8931314601093609529e-07
-8.8026616316609546959e-07
1.072307071913091155e-06
-1.4124055741759424195e-06
1.320769687598433188e-06
-1.9731927736209894497e-06
1.4220166989922697795e-06
-2.5114131052880735768e-06
1.3824938196558576342e-06
-2.9823887625869842194e-06
1.2194464531844587636e-06
-3.349736977854429738e-06
9.5581755400311153551e-07
-3.5862944883480710262e-06
6.171570570199534165e-07
-3.6746041379984460298e-06
2.3029130608142726795e-07
-3.6073063995435395468e-06
-1.7687556940280662395e-07
-3.387598020260643887e-06
-5.7507613975540871365e-07
-3.0297556503926104014e-06
-9.3347741610797591058e-07
-2.5595367461274266937e-06
-1.2200793188104376479e-06
-2.0140953377958165064e-06
-1.4031973176139001253e-06
-1.440928435394128626e-06
-1.4544899762548763054e-06
-8.9536855504005873164e-07
-1.3538282757236031305e-06
-4.3636980778320586201e-07
-1.0957617376765031532e-06
-1.2099077764137529285e-07
-6.9829804710068231541e-07
-2.2059688001847830309e-07
-1.5815639221311907077e-07
3.8023137354987961646e-07
-5.5285905815280607996e-07
1.084015435345432211e-06
-1.1093472846394883936e-06
1.6287945786625786047e-06
-1.7562307631226752644e-06
1.9676539350789952463e-06
-2.4272089999152910536e-06
2.092995090793970877e-06
-3.0635092728397985914e-06
2.0187943970329571544e-06
-3.615602650623712533e-06
1.7715399067353091126e-06
-4.0440518412765741107e-06
1.3842667931888241385e-06
-4.3197767054612570969e-06
8.9288118746167456999e-07
-4.424097370087280934e-06
3.3461161814819259253e-07
-4.3488776711149635312e-06
-2.520952936399876672e-07
-4.0969386963681445323e-06
-8.2701509054493545019e-07
-3.6827566021460501184e-06
-1.3476592077079287173e-06
-3.1332697808970894123e-06
-1.7695655528863489817e-06
-2.4884302715240639227e-06
-2.0480362775740248136e-06
-1.8009865539652578077e-06
-2.1419336879486054298e-06
-1.1349537705562848109e-06
-2.0198617177464628898e-06
-5.6244084339624342873e-07
-1.6682751315077544032e-06
-1.5911718514954442528e-07
-1.1016218520828510804e-06
-3.7971472865073745745e-07
-1.9270287440176071824e-07
5.7293410417685539098e-07
-6.6712388340485682531e-07
1.5584355483262400016e-06
-1.3257763876987442395e-06
2.2874468096755475045e-06
-2.0798255812057840279e-06
2.7217032699815003003e-06
-2.8513705392320238093e-06
2.8645398456327004385e-06
-3.5748605656448015632e-06
2.7422843843427667947e-06
-4.1974030512072265988e-06
2.3940821739390208335e-06
-4.6782616602370523387e-06
1.8651252995205080126e-06
-4.9880090550565596276e-06
1.2026283375433421142e-06
-5.1077656807212303992e-06
4.5436848849605916052e-07
-5.0288664047328672364e-06
-3.3099414435723241198e-07
-4.7531468878935052036e-06
-1.1027342219040556162e-06
-4.2938914402906559214e-06
-1.8069141093388958187e-06
-3.6772956743406708386e-06
-2.3861607614335271141e-06
-2.9440802621430309168e-06
-2.7812514190934993205e-06
-2.1506713589612541525e-06
-2.9353428335029935007e-06
-1.3692073613621134396e-06
-2.8013261038849174522e-06
-6.8569061248985132043e-07
-2.3517914513905115043e-06
-1.9598006501768211336e-07
-1.5913331194535074564e-06
-5.7569496294002338951e-07
-2.2660742743584188758e-07
7.9954089730580943622e-07
-7.7832327175260047765e-07
2.1101518655462040292e-06
-1.534148719081930395e-06
3.0432729824178508594e-06
-2.3872372642208700437e-06
3.5747914453293453072e-06
-3.2483830514504467523e-06
3.725685429334761973e-06
-4.0464906505303949795e-06
3.5403919765865971312e-06
-4.7271578199763535056e-06
3.0747491832109372255e-06
-5.2503729950238254835e-06
2.3883402203441061436e-06
-5.5881225598440472673e-06
1.5403775826659947922e-06
-5.7224857525866692476e-06
5.8873159263382491717e-07
-5.6446020688747982748e-06
-4.0887794584530701432e-07
-5.3547318240583292152e-06
-1.3926046028674394341e-06
-4.8634926205354180135e-06
-2.2981531918019974792e-06
-4.1941802848826020424e-06
-3.0554728104407663579e-06
-3.3858389960877948063e-06
-3.5895926180817954485e-06
-2.4964146123138938925e-06
-3.8247674535450976654e-06
-1.6049584919661736091e-06
-3.6927822566062083924e-06
-8.1161971263701697635e-07
-3.145129323804779482e-06
-2.3418235831061333498e-07
-2.1687716891734342275e-06
-8.0987628652891905388e-07
-2.6143324654716756234e-07
1.0609732317440236539e-06
-8.8931872296486046614e-07
2.7380369464887920731e-06
-1.7365741853115095804e-06
3.8905282158432389023e-06
-2.6775208544210044231e-06
4.5157372865984082009e-06
-3.612555686674163176e-06
4.6607199294747254266e-06
-4.4671863129253992542e-06
4.3950223375430288894e-06
-5.1882441391866223899e-06
3.7958067375974948398e-06
-5.7391906283686384041e-06
2.9392863030794698358e-06
-6.0957252830480846369e-06
1.8969118650173143584e-06
-6.2424208710186852812e-06
7.3542699031602762376e-07
-6.1707856499655203581e-06
-4.8051338820609768842e-07
-5.8789779116847498829e-06
-1.6844125973976264654e-06
-5.3733041570589971331e-06
-2.8038271525910591402e-06
-4.6715116489146295473e-06
-3.7572654551923689688e-06
-3.8076461800486933754e-06
-4.4534583120968008121e-06
-2.8377998086656966449e-06
-4.7946139957006011308e-06
-1.8454223811149664303e-06
-4.6851596685055840863e-06
-9.4418435902592281937e-07
-4.0463669412818266646e-06
-2.7583489716513783945e-07
-2.8371223602678018751e-06
-1.0857099611665074767e-06
-2.9842912754377870362e-07
1.3594030382930857534e-06
-1.0015758435553537714e-06
3.4411842398051169711e-06
-1.9315953120260231811e-06
4.8205476959617150207e-06
-2.9429358124822795057e-06
5.527078040962805359e-06
-3.927500197970804641e-06
5.6452845896142097166e-06
-4.8109675367534427432e-06
5.2784893496573981065e-06
-5.5454890161606953442e-06
4.5303277309191671864e-06
-6.101805888341998806e-06
3.4956024672196714201e-06
-6.4623916520796379883e-06
2.2574968804111947877e-06
-6.6163759591531033392e-06
8.8941077787067737663e-07
-6.5565484272659830051e-06
-5.4034119386621778648e-07
-6.2785953583241516828e-06
-1.9623657435345573892e-06
-5.7827390506390403147e-06
-3.2996834977144762056e-06
-5.0779608381853925885e-06
-4.4620436041729802233e-06
-4.188832958820498732e-06
-5.3425860802560061849e-06
-3.1644769681326320558e-06
-5.8189695426511179842e-06
-2.0881955963426446102e-06
-5.7614411191685936388e-06
-1.0849677564329510637e-06
-5.0495951576777119222e-06
-3.2250102380112089069e-07
-3.59958957768108099e-06
-1.408210900419943547e-06
-3.3883726910315789436e-07
1.6982404104570695103e-06
-1.1152257664540693837e-06
4.2175732225207403193e-06
-2.1133369091304910444e-06
5.8186585759752839571e-06
-3.1669677171572605793e-06
6.5807088701145693987e-06
-4.1632290525122805962e-06
6.6415456337751076787e-06
-5.0336516945978181488e-06
6.1489110417250528298e-06
-5.7415564135552042371e-06
5.2382315893170768465e-06
-6.2700044303816394607e-06
4.0240498380060754291e-06
-6.6120979794766095072e-06
2.5995899142403766268e-06
-6.764118273199479506e-06
1.0414308502974713951e-06
-6.7214538072709122425e-06
-5.830054028861932664e-07
-6.4772521438977146872e-06
-2.2065667849894386398e-06
-6.023961677860699876e-06
-3.752973272884251925e-06
-5.3581930009748661228e-06
-5.1278114015199778724e-06
-4.4894007940891280634e-06
-6.2113773725483386568e-06
-3.4524724942073527575e-06
-6.8558965895630838812e-06
-2.3230894560696876413e-06
-6.8908244496351648252e-06
-1.2324990576136530552e-06
-6.1401858278488460573e-06
-3.7528640053905630529e-07
-4.4568019638195736931e-06
-1.783497967551320285e-06
-3.8438463907604359843e-07
2.0826248658597435923e-06
-1.2290686062835987597e-06
5.0622572912022426506e-06
-2.26998304242834411e-06
6.8595731067254515296e-06
-3.3210683261155132063e-06
7.631793956922588312e-06
-4.2716343257602364233e-06
7.5921111358843548748e-06
-5.0677895616804162011e-06
6.9450655566943084575e-06
-5.6919442495906042912e-06
5.8623857910927786938e-06
-6.1456337921397247008e-06
4.4777393085676325623e-06
-6.4369470423402670199e-06
2.89090337705349606e-06
-6.57219196297579615e-06
1.1766761380687398392e-06
-6.5510086749337695009e-06
-6.0418805296496241978e-07
-6.3644251558579718306e-06
-2.3931495633917225776e-06
-5.9959375586598434612e-06
-4.1214602319482971114e-06
-5.4263514809893984435e-06
-5.697396656652475848e-06
-4.6436210315110264658e-06
-6.9941072296778096867e-06
-3.6588994860678078086e-06
-7.8406174032692053575e-06
-2.5288465868202570115e-06
-8.0208786443262836282e-06
-1.3811469685577867756e-06
-7.2878849907325616368e-06
-4.349560464101875387e-07
-5.4029931194843909393e-06
-2.21845390292355251e-06
-4.3793770329293548726e-07
2.5205630783334372275e-06
-1.3398056993842087384e-06
5.9641254726461932458e-06
-2.3801051191366669909e-06
7.8998730853642851988e-06
-3.3583240540368382109e-06
8.6100125777178086815e-06
-4.1787469333771645066e-06
8.4125336055194863241e-06
-4.8148825176593789961e-06
7.5812010323787692867e-06
-5.2781186869616082767e-06
6.3256221010656565591e-06
-5.5950330603397405442e-06
4.7946536693314986105e-06
-5.7927345905073447218e-06
3.0886049118631635082e-06
-5.8900658176915546838e-06
1.2740073794955100184e-06
-5.8926180487688064439e-06
-6.0163579294401675204e-07
-5.7903776102973707803e-06
-2.4953901795951049345e-06
-5.5578906748107210914e-06
-4.3539474854984968125e-06
-5.1579757737424537006e-06
-6.0973115463917919188e-06
-4.5511504457795814497e-06
-7.6009329738995113043e-06
-3.71376290203799432e-06
-8.6780052188625063803e-06
-2.6674006324352638006e-06
-9.0672426162129167546e-06
-1.5187865292255541984e-06
-8.4364974728346058832e-06
-5.0196992897144407901e-07
-6.4198106027293513296e-06
-2.7204223202712609271e-06
-5.0410601078764160187e-07
3.0246696641903046828e-06
-1.4388622995988044725e-06
6.8988818588075105713e-06
-2.4039581242281435715e-06
8.8649690442435369846e-06
-3.2009288342358905384e-06
9.4069824171597037787e-06
-3.7712609899836386587e-06
8.9828649872134236571e-06
-4.1333569514713606064e-06
7.94329662280500112e-06
-4.3382617459078864089e-06
6.5305271122416369789e-06
-4.4428233675428123884e-06
4.8992150100158001917e-06
-4.4952530779772726407e-06
3.1410339457010898848e-06
-4.5278900474604770609e-06
1.3066437954668581517e-06
-4.5534258845769088223e-06
-5.7610018239687612491e-07
-4.5626213196698981245e-06
-2.4861948606902547762e-06
-4.5231208133103282588e-06
-4.3934477096969602004e-06
-4.3805307081001834953e-06
-6.239900646267885371e-06
-4.064779431575811363e-06
-7.9166837228437684587e-06
-3.5069600388963367599e-06
-9.2358237343420645799e-06
-2.6733770044422351725e-06
-9.9008253185248731507e-06
-1.62159706009977899e-06
-9.4882749150939969622e-06
-5.7604670145488567425e-07
-7.4653608759933741724e-06
-3.2964683268162913616e-06
-5.8846322435880745638e-07
3.613132888952628365e-06
-1.5024208447018989543e-06
7.8128389793286360989e-06
-2.2636818721058379506e-06
9.6262291592175051961e-06
-2.7159482062904419543e-06
9.8592473407343891824e-06
-2.8736177703364463402e-06
9.1405337075745055677e-06
-2.8205695502564218799e-06
7.890247724871630967e-06
-2.6554855815191811439e-06
6.3654431160160489342e-06
-2.4659750827985329098e-06
4.7097044815432026946e-06
-2.318898938988517206e-06
2.9939575542774837827e-06
-2.257814468602754337e-06
1.2455594162380111132e-06
-2.3021993336766808283e-06
-5.3171467781626777085e-07
-2.4460103184308554971e-06
-2.3423830309069633551e-06
-2.6549389287873501106e-06
-4.1845177420899647521e-06
-2.8633130135979771556e-06
-6.0315248593099829804e-06
-2.9738778020596355324e-06
-7.8061182760983315406e-06
-2.8674546866700223535e-06
-9.3422457745103588674e-06
-2.4343437899193768195e-06
-1.0333935388185123611e-05
-1.6419690451896421619e-06
-1.0280649715877041112e-05
-6.5362182583138396238e-07
-8.4537072639950051932e-06
-3.950091974390450415e-06
-6.9044681242169246242e-07
4.3035793761421731169e-06
-1.4627557176541842759e-06
8.5851467398970684607e-06
-1.7993143378344294072e-06
9.9627861375775703128e-06
-1.6698288424533467497e-06
9.7297604756893970289e-06
-1.2108077755570485208e-06
8.6815125615221686543e-06
-5.8774313901308962244e-07
7.2671836218867243235e-06
5.5329229766342221839e-08
5.7223713555547269657e-06
6.0963711511781689813e-07
4.1553968239740820355e-06
9.998249834659261815e-07
2.6037693388287471029e-06
1.1784100993024237074e-06
1.0669738674904558758e-06
1.1219089519403329633e-06
-4.752139194728401618e-07
8.3060966208444880346e-07
-2.0510843722730383154e-06
3.3257866770991119013e-07
-3.6864870051081995251e-06
-3.0832827998958558741e-07
-5.3906181734327273896e-06
-9.8251055526580082105e-07
-7.1319371962739102282e-06
-1.5293987193316485859e-06
-8.7953574476083077309e-06
-1.7523492631816136227e-06
-1.0110984677007257856e-05
-1.4792917389859637792e-06
-1.0553708579962365116e-05
-7.1829461490993363063e-07
-9.214702741017545166e-06
-4.6683856537351631915e-06
-7.761414111262270171e-07
5.079720501266425298e-06
-1.1323989696838290951e-06
8.9414032466662470824e-06
-6.7606717484220666999e-07
9.5064533050140800961e-06
3.5099117550898280837e-07
8.7027015613962764953e-06
1.645709456040399206e-06
7.3867946541314591231e-06
2.969074043843105307e-06
5.943819724756381503e-06
4.1568866184239835218e-06
4.534558912340892425e-06
5.1048997140477316299e-06
3.2073829377003033666e-06
5.7493102898995834064e-06
1.9593574896526961537e-06
6.0515942738297963391e-06
7.6468911895007808243e-07
5.9899377663809869662e-06
-4.1355748991036332667e-07
5.5570299937430081615e-06
-1.6181764318795041395e-06
4.7642795410942913558e-06
-2.8937355819099303656e-06
3.6533893589526242598e-06
-4.2797270876558453055e-06
2.316172861844539781e-06
-5.7947204503154351111e-06
9.2038930891226727176e-07
-7.3995721480026601413e-06
-2.7031518465078070861e-07
-8.9202798103942398256e-06
-9.1085875248519923015e-07
-9.9131639932252374437e-06
-7.1196267839784719707e-07
-9.4135984623050264047e-06
-5.3803474244262549834e-06
-6.9065144108189235617e-07
5.7703716717615733523e-06
-2.292687232390295354e-08
8.2736780790066304428e-06
1.7840793930813982715e-06
7.6994472158310420137e-06
4.0527331805283493428e-06
6.434047894615701502e-06
6.3339482676650524738e-06
5.1055802488010901e-06
8.3833319937673578162e-06
3.8944368256680011e-06
1.0078171447339366923e-05
2.8397195760880092284e-06
1.1362273898146063643e-05
1.9232795289778170933e-06
1.2210755619401909608e-05
1.1108744895547222201e-06
1.2609757494490624489e-05
3.656867518252527201e-07
1.2546425091311570399e-05
-3.5022500061206812633e-07
1.2005824791060134399e-05
-1.0775763738857690512e-06
1.0973428774844387054e-05
-1.8613395376800743141e-06
9.4458533364111021269e-06
-2.7521519922395570214e-06
7.4539577430980117069e-06
-3.8028251639902079285e-06
5.1048608867423564276e-06
-5.0504741651124651777e-06
2.6467610130622956072e-06
-6.4621810136145895192e-06
5.5349193275742261417e-07
-7.8198929012866789966e-06
-4.4920460944220320074e-07
-8.4108992860936398822e-06
-5.8295538269290342673e-06
1.8318946256539184048e-07
5.5871820727746063679e-06
3.0435810424108165e-06
5.4132858301419652265e-06
6.8705212808778740719e-06
3.8725070697215804866e-06
1.0549451674995292719e-05
2.7551176987164117095e-06
1.3713871811560228886e-05
1.9411601655559470729e-06
1.6278167837484964017e-05
1.3301406480514949902e-06
1.8254521572559391778e-05
8.6336518581097908074e-07
1.9682039214336028061e-05
4.9576078317865811664e-07
2.0596823200813986992e-05
1.9608983586105858329e-07
2.1019917276616825172e-05
-5.7406931672495323688e-08
2.095239222477592462e-05
-2.8269949277697619598e-07
2.0374417100461091594e-05
-4.9960176314004269987e-07
1.9243610356488304069e-05
-7.3053305688404276702e-07
1.7498264961110907196e-05
-1.0068068419618420985e-06
1.506896641775805351e-05
-1.3735260741152250588e-06
1.1912584295365309618e-05
-1.8940907331320398906e-06
8.0959828985236337323e-06
-2.6455797422584159024e-06
3.9841994185832009396e-06
-3.7081110872320880879e-06
6.6465753661804042817e-07
-5.0913556205681147627e-06
-5.1648938212030751088e-06
4.126421698690729679e-06
1.4607604696211734312e-06
1.1133037657174397819e-05
-1.5933300977815677514e-06
1.7005208357732597922e-05
-1.9996635312026116022e-06
2.1476443995875332674e-05
-1.716118080684166419e-06
2.4811116596155897247e-05
-1.3935128584658678366e-06
2.726054362447871167e-05
-1.1192868935664700303e-06
2.9023410193780224751e-05
-8.9950204063769544086e-07
3.023682204472003798e-05
-7.176517743168604146e-07
3.0986429206073891525e-05
-5.5351754814306968342e-07
3.131844528812903597e-05
-3.8942280874108423724e-07
3.1246065668185175922e-05
-2.1032054505267114075e-07
3.0749000314769355728e-05
-2.5380004800653255463e-09
2.9771977311799247695e-05
2.4649031117156058975e-07
2.8213918846252572677e-05
5.512531357905028746e-07
2.5914232865665762072e-05
9.2616045633413844649e-07
2.2638807611572604186e-05
1.3813326725735223556e-06
1.8094676934076457561e-05
1.8985519944590641674e-06
1.2017454577886638097e-05
2.3691110299730871104e-06
4.6811018350761515917e-06
2.2449943649342769064e-06
-4.8379275133911153941e-07
2.1435814606926652845e-05
3.1375954700971737748e-05
3.5983762690915757903e-05
3.873225927693848224e-05
4.049553257092672841e-05
4.166461169173772775e-05
4.2451401867738810863e-05
4.2967272454888759132e-05
4.3271690969691327963e-05
4.3394641861350329948e-05
4.3345231603123146765e-05
4.3113758276766388092e-05
4.2667901246982814728e-05
4.1943171714914160165e-05
4.0817989281258101008e-05
3.9058131148126271829e-05
3.6199912454755351916e-05
3.1215570642192392301e-05
2.0811871162864151435e-05
)
;

boundaryField
{
    movingWall
    {
        type            calculated;
        value           nonuniform List<scalar> 
20
(
-1.9975053972547809965e-05
-1.1533470229501883208e-05
-6.6074719416075407532e-06
-4.4646152693536775573e-06
-3.156786472046019353e-06
-2.2883658432524008409e-06
-1.6862919910988285388e-06
-1.2335226399381048589e-06
-8.5793669237192897343e-07
-5.1237405057253567033e-07
-1.6091052883612854864e-07
2.2893498279687291918e-07
6.9234802016980156477e-07
1.275982678647068792e-06
2.0513418249620043784e-06
3.1411902681774808764e-06
4.7567731346744407565e-06
7.3534532107174761646e-06
1.2648696123979741976e-05
2.0328077875885101704e-05
)
;
    }
    fixedWalls
    {
        type            calculated;
        value           uniform 0;
    }
    frontAndBack
    {
        type            empty;
    }
}


// ************************************************************************* //
