/*--------------------------------*- C++ -*----------------------------------*\
| =========                 |                                                 |
| \\      /  F ield         | OpenFOAM: The Open Source CFD Toolbox           |
|  \\    /   O peration     | Version:  2412                                  |
|   \\  /    A nd           | Website:  www.openfoam.com                      |
|    \\/     M anipulation  |                                                 |
\*---------------------------------------------------------------------------*/
FoamFile
{
    version     2.0;
    format      ascii;
    arch        "LSB;label=32;scalar=64";
    class       volVectorField;
    location    "0.1";
    object      U;
}
// * * * * * * * * * * * * * * * * * * * * * * * * * * * * * * * * * * * * * //

dimensions      [0 1 -1 0 0 0 0];

internalField   nonuniform List<vector> 
400
(
(0.00019020560070888618376 -0.00018781650230280234437 0)
(4.3994199270993314486e-05 0.00012521446202553313193 0)
(-0.001105276869797459623 0.00049460157261073693299 0)
(-0.0030422699555806300385 0.00074618924532352459093 0)
(-0.0054325624509977254312 0.00086555991496685131918 0)
(-0.0079552971674828661802 0.00086902882622768272153 0)
(-0.010331162036675660409 0.00077858664387355587446 0)
(-0.012333390018037300451 0.00061627540321282587091 0)
(-0.013789743972254424678 0.00040219491987568618038 0)
(-0.014580644023888785291 0.00015481509277607711844 0)
(-0.014638449754581159268 -0.0001077244859551701071 0)
(-0.013949229502843612724 -0.00036621235585261894749 0)
(-0.012556720985758896766 -0.0005992786352126454677 0)
(-0.010567546392748027387 -0.0007828640227139051699 0)
(-0.0081559899293276293814 -0.00089047329407506759825 0)
(-0.0055654180966771176278 -0.00089481379944593235874 0)
(-0.003101124015415465153 -0.00077180247904721035503 0)
(-0.0011099171888205592099 -0.00050764501134955685585 0)
(5.9616543030145447042e-05 -0.00012387559463962537036 0)
(0.00019853111900185342934 0.00019479527241860234593 0)
(-0.00010042657799211489387 -6.4956499781382911075e-05 0)
(-0.0014498895147717445406 0.0014718647007149704507 0)
(-0.0048881728355503507866 0.0030687609200102964821 0)
(-0.0098683362671728707544 0.0041788494360787582782 0)
(-0.01572206282527205054 0.0047045895419791103689 0)
(-0.021796113860863702144 0.0046778424431807861042 0)
(-0.027481235282216957827 0.004177490338424048183 0)
(-0.032258964627899615329 0.0032996705037126221674 0)
(-0.035724970919752463416 0.0021437983094466364284 0)
(-0.037596121474353781655 0.00080927030701391392074 0)
(-0.037714589283433089251 -0.0006025065768508262691 0)
(-0.036053456489206776869 -0.0019846261098282972496 0)
(-0.032724110177398298138 -0.0032221081333766786285 0)
(-0.027983639712615075712 -0.0041920184025776626585 0)
(-0.022238387760554603756 -0.0047680053126652422943 0)
(-0.016036447973324520488 -0.0048318919433931323271 0)
(-0.010035031008339100056 -0.0042958345874704552056 0)
(-0.0049368708520756534111 -0.0031373902140745778266 0)
(-0.0014409622881569350041 -0.001481843983649663507 0)
(-9.0099818652291389009e-05 8.3900611912387981078e-05 0)
(-0.00047256502517076416766 0.0010458595310487376479 0)
(-0.0031591062854568825909 0.0049227506968302246412 0)
(-0.0088366670406842141167 0.0085324538156781298132 0)
(-0.016495826627135230791 0.011014358186174893345 0)
(-0.025184392120794235614 0.012149691602382483094 0)
(-0.034038330370405212033 0.011975146531079460671 0)
(-0.042243696479589414039 0.010649671853505683974 0)
(-0.049099017754713328299 0.0083897877102361018142 0)
(-0.054053405253035605171 0.0054345089238322982078 0)
(-0.056720020766103308729 0.0020324989355486691202 0)
(-0.056883836050512844029 -0.0015582865701898437807 0)
(-0.054509747776226767646 -0.00506650740180534815 0)
(-0.049751626066213062993 -0.0082047365912698549256 0)
(-0.042960268982049014397 -0.010672994496174674148 0)
(-0.034685651384616468518 -0.012173127633562996069 0)
(-0.025664156837578076809 -0.012439468646383849623 0)
(-0.016770559711071532372 -0.01129140179079076052 0)
(-0.0089361677255696304878 -0.0087096923911342202795 0)
(-0.0031613274273221878517 -0.0049703970100743195132 0)
(-0.00046107524383180064275 -0.001017861325657622943 0)
(-0.00079170834402490634397 0.0030640802672826307658 0)
(-0.0047207303006681355928 0.010274215825521432199 0)
(-0.012520927581515241614 0.016424633315289552393 0)
(-0.02264906827070756537 0.020513195699935315996 0)
(-0.033847422016957888491 0.022264213404914912076 0)
(-0.045072517445294009442 0.021753432722664028942 0)
(-0.05536446350297746094 0.019248547108488101715 0)
(-0.063904106767952037482 0.015116831627442735633 0)
(-0.07005228978294476827 0.009770552736287550083 0)
(-0.073361248718195271046 0.0036439069727215926513 0)
(-0.073581099935545471458 -0.0028105568558668384167 0)
(-0.070667968050343435427 -0.009117593084417837529 0)
(-0.06479424340180048314 -0.014776568543125706209 0)
(-0.056359060433754999686 -0.019268899992925785786 0)
(-0.045994534577599083258 -0.022083538338603287549 0)
(-0.034557532734688770071 -0.022768441755471227617 0)
(-0.023081660481153766507 -0.021014029910558222614 0)
(-0.012699376986481224899 -0.016766278669265024387 0)
(-0.0047423076381885994821 -0.010390615029824343263 0)
(-0.00077909845052395894621 -0.0030302901325863014666 0)
(-0.0010643029416188096604 0.00586841340813476324 0)
(-0.0061326477675236520243 0.017353243892556397682 0)
(-0.015932059456963142824 0.026510916788941848304 0)
(-0.028371183295199949026 0.032349165611296200329 0)
(-0.041868265895284570433 0.034638506625403631123 0)
(-0.05520666297632047248 0.033561575397695442291 0)
(-0.067310791891838861467 0.0295403205308476767 0)
(-0.077285450983921658019 0.023124686521828488606 0)
(-0.084444259222636791629 0.014923782252742804136 0)
(-0.088309887770397665907 0.0055758065242217571406 0)
(-0.088613269781487827292 -0.004256297753747529701 0)
(-0.08529874310306183316 -0.013877771470778064652 0)
(-0.078535517778874602834 -0.022556637506007434779 0)
(-0.068733914795614609039 -0.029532158718404147996 0)
(-0.056562461186537786595 -0.03404858019479665987 0)
(-0.042954832829445115105 -0.035424616215631657412 0)
(-0.029075478901179972746 -0.033164551529687301412 0)
(-0.01625930792049317189 -0.027103378485218668215 0)
(-0.0062013210436191804065 -0.017592961259879226488 0)
(-0.0010551960550437714057 -0.0058396002333496645903 0)
(-0.0013138323089326568206 0.0093837377450443678478 0)
(-0.0074564039249762226885 0.026060576047765196539 0)
(-0.019157483265899638569 0.03868762978933434904 0)
(-0.033776284354012746369 0.046394999294666484924 0)
(-0.049397774826339918564 0.049110977571974745448 0)
(-0.064637844522582629803 0.047213024502979386576 0)
(-0.078329649854047625479 0.041339008419937574301 0)
(-0.089536771647166099597 0.032260253204172237296 0)
(-0.097560922074290845618 0.020803477722987160498 0)
(-0.10192258241449642098 0.007819044079185745455 0)
(-0.10234697092402868235 -0.0058187891884526341327 0)
(-0.098763048603369207878 -0.019196499475280442287 0)
(-0.091316066304338611159 -0.031347193912480780797 0)
(-0.080392748333456554022 -0.041253684319685630932 0)
(-0.066656049263895900125 -0.047884124439035634369 0)
(-0.051077497490888898457 -0.050274186613314862659 0)
(-0.034928658782719938791 -0.047663053403249527884 0)
(-0.019748805892189871813 -0.039672320083084341991 0)
(-0.0076231705025655311508 -0.02652440352740799423 0)
(-0.0013186990012511216018 -0.0093906123676945948281 0)
(-0.001561359645997999028 0.013578377813198875407 0)
(-0.0087547158168087696462 0.036332782049068888808 0)
(-0.022287419508374720079 0.052859863007500680621 0)
(-0.038955216480542974311 0.062513556931758793023 0)
(-0.056505952200965478549 0.065501990448909919174 0)
(-0.073403990491681919694 0.0625021555112579702 0)
(-0.088424194301991512757 0.054442485132499156275 0)
(-0.10063004353966098492 0.042359284822123824399 0)
(-0.10935114581711158355 0.027313983158746436147 0)
(-0.11413637042927797516 0.010366630036109001148 0)
(-0.11472092953796370063 -0.0074114405201442965995 0)
(-0.11101600821536751484 -0.024905609451669322163 0)
(-0.10312169333580986641 -0.040926112959185023676 0)
(-0.091363367901724570896 -0.054195918531575758281 0)
(-0.076350020864203102522 -0.063378337766381187546 0)
(-0.059041862408540958518 -0.067163788504073437813 0)
(-0.04078053246163637624 -0.064427789770075072351 0)
(-0.023298070931827407487 -0.054450328281265968078 0)
(-0.0090931796860221156958 -0.037188718088262136263 0)
(-0.0015968966046659236607 -0.013685110281329522508 0)
(-0.0018245840745576900714 0.018456440825199794953 0)
(-0.010078587054887195446 0.048138331694991563781 0)
(-0.025381894273968877429 0.068927915420450264206 0)
(-0.043929328991638476321 0.080523670662319288271 0)
(-0.063132312873461812752 0.083559965819951870225 0)
(-0.081337462392673393063 0.079138874889597060625 0)
(-0.097313589240316911155 0.068566068660577669802 0)
(-0.11018162554933248753 0.053188503855401206288 0)
(-0.1193514385820061835 0.034312743760810233973 0)
(-0.12443987853346033523 0.013192764597383528982 0)
(-0.12521392252588495198 -0.0089349300960499620367 0)
(-0.12156773179537844198 -0.03079214903730822725 0)
(-0.11353436685686082996 -0.05099790426235022156 0)
(-0.10133394201037235205 -0.068028119676030257557 0)
(-0.085459549301119056008 -0.080221233374133393834 0)
(-0.066789400524869091402 -0.08585695977323279382 0)
(-0.046670940577462037557 -0.083330163262709672223 0)
(-0.02699183506433317295 -0.071418195990934518758 0)
(-0.010680554098032944699 -0.049637832392692447792 0)
(-0.001913443947570508518 -0.018773199440120274389 0)
(-0.0021200415347732378714 0.024050253894932590443 0)
(-0.011466858693165741731 0.061463082866984375396 0)
(-0.028457068090255211584 0.086760004962489728486 0)
(-0.048620797366731624556 0.10015632047260976389 0)
(-0.069043476072871048932 0.10290421830556686911 0)
(-0.08801553138557455247 0.096685338714279284167 0)
(-0.10438142757625260004 0.083281025404062722362 0)
(-0.1174015129945226027 0.064392596328277207363 0)
(-0.12663624476260790241 0.041570794299201990762 0)
(-0.13182259449375383076 0.016230387210635729978 0)
(-0.13278970616681684547 -0.01028010151101669406 0)
(-0.12942076892335233063 -0.036580294509757325938 0)
(-0.12166087339203804363 -0.06115481972728692428 0)
(-0.10957478769840618693 -0.082269434954896983325 0)
(-0.093461099370518871399 -0.097936005346494464652 0)
(-0.074015879171971457606 -0.1059635400797628163 0)
(-0.052487764634775405104 -0.10413346172783034815 0)
(-0.030841650858038631433 -0.090516674988318779338 0)
(-0.012432489049743996809 -0.06394664353104800858 0)
(-0.0022897179125628045436 -0.024742609538596631313 0)
(-0.0024680417581101651674 0.030416360297305544691 0)
(-0.012953282004027139723 0.07628610265369126231 0)
(-0.031479221596219901513 0.10614084350285941938 0)
(-0.052824011798264271234 0.12098031059500785611 0)
(-0.073782609107265251236 0.12293872707539654776 0)
(-0.092695003747335982802 0.11446938138274391494 0)
(-0.10860385032800540239 0.09793650997841109318 0)
(-0.12102085054182147583 0.075430160977585480886 0)
(-0.12974684441780301447 0.048725752729348863201 0)
(-0.1347034612008143617 0.019343162392876606798 0)
(-0.13582132624136938892 -0.011335008902938103342 0)
(-0.13298598904094863227 -0.041915017332117061877 0)
(-0.12603840842719427062 -0.07083486431708614639 0)
(-0.11483635565526735534 -0.096220724129930781943 0)
(-0.099391219334096198024 -0.11578824519612115895 0)
(-0.080084009787218801701 -0.12683610564242320251 0)
(-0.057906743517028562429 -0.12639269271627115443 0)
(-0.034759015602334325523 -0.11156831448150243691 0)
(-0.014372522629152170021 -0.0801695170463061213 0)
(-0.0027481995635353995491 -0.031708350805483682955 0)
(-0.0029008189821244766832 0.037640232237108814384 0)
(-0.014577053056208840939 0.092550173358312740057 0)
(-0.034352167656420566633 0.12669793967204739937 0)
(-0.056156491711202446981 0.14230007671124161872 0)
(-0.076588216046381746294 0.14274311168206554878 0)
(-0.09421289515202335707 0.13148500409010838164 0)
(-0.10844661629077147202 0.11157769361297976973 0)
(-0.11919496790857338209 0.085511060402007607606 0)
(-0.12660315655637430221 0.055236705288589739438 0)
(-0.13084813198605504958 0.022296063905107146863 0)
(-0.13200650588326898194 -0.011998374375388583951 0)
(-0.12998774866539700157 -0.046356177931343389709 0)
(-0.12452365703153159271 -0.079290384175006153877 0)
(-0.11522249454174461614 -0.10890100771380109568 0)
(-0.10171313730466305381 -0.13268739056974926394 0)
(-0.083901343959777774373 -0.14744286507735429592 0)
(-0.062302291570446532987 -0.14931881380870398734 0)
(-0.03851292598358498076 -0.13416433994547283248 0)
(-0.016496889595804940798 -0.098279021311513947712 0)
(-0.0033175200997900139432 -0.039805271134730424443 0)
(-0.0034752463514091955568 0.045855365646401906321 0)
(-0.016391128552256332279 0.11012009273664374875 0)
(-0.036875015957006221368 0.1477902379777539521 0)
(-0.057954112581424258033 0.16301316252180886313 0)
(-0.076246319947434346154 0.16093740728754005187 0)
(-0.090825303855304614919 0.1462856008656308604 0)
(-0.10171545665335211817 0.12287158762688378533 0)
(-0.10937872616924836089 0.093548442730997022343 0)
(-0.11440573229666708976 0.060352457534091519253 0)
(-0.11728967257007714975 0.024731625476104277667 0)
(-0.11829283762575931727 -0.012198440030074813797 0)
(-0.11737689722786300017 -0.049388651561384680488 0)
(-0.11417902511348439198 -0.08557857614767168386 0)
(-0.10804289999537111666 -0.11900275617168513953 0)
(-0.098141732182712437815 -0.14709252066346212295 0)
(-0.083740829459314200522 -0.16622115478902524388 0)
(-0.064600081161801464757 -0.17160005523202095934 0)
(-0.041648354048008498496 -0.15750144170364765994 0)
(-0.018760551884252310573 -0.11807605276376628711 0)
(-0.004039307727136048215 -0.049185726525558109978 0)
(-0.0042900784567911614403 0.055281258980810647763 0)
(-0.018451349160396177812 0.1287022488116109642 0)
(-0.038621652961871040521 0.16832314468966122489 0)
(-0.057045807497296242838 0.18140609327975121268 0)
(-0.070816799555705314817 0.17552072825654643773 0)
(-0.079943475074695444227 0.15688644173428742401 0)
(-0.085339924739468484005 0.13006509856844500339 0)
(-0.088173051366753379954 0.098150626614803782033 0)
(-0.089540988673845994805 0.063113995097243580368 0)
(-0.090275433162727888869 0.026165236543517503276 0)
(-0.090841043299991999782 -0.011913313499204153736 0)
(-0.091281009835907589434 -0.050455284232871606964 0)
(-0.09118089975784364476 -0.088591253171165007529 0)
(-0.089657911290154906903 -0.1248908852846625922 0)
(-0.0854208575913748408 -0.15694748715859327404 0)
(-0.076974951736598726248 -0.18092505185640647691 0)
(-0.063025090330544250583 -0.19117128228940963308 0)
(-0.043321434528654466367 -0.1801368918818024023 0)
(-0.021032086257863662898 -0.1390393046863925286 0)
(-0.0049742104260127968304 -0.060019478868563409801 0)
(-0.0054954051180444302149 0.066245190249506341607 0)
(-0.020727269236426339866 0.14761891818044675651 0)
(-0.038627389828937097604 0.18639120925471661105 0)
(-0.051283345931740359491 0.19484249204264142419 0)
(-0.05713909047372110056 0.18368697184957061275 0)
(-0.057714203184498304167 0.16070815094675749979 0)
(-0.055074764328188488549 0.13101628880165708257 0)
(-0.051152792974657343428 0.097690951187727123606 0)
(-0.047516128556822516404 0.062420651038344071582 0)
(-0.045276237913315635353 0.026018100814853551556 0)
(-0.045068200199563521191 -0.011186531738394707783 0)
(-0.047036192166494628086 -0.049020549747107060312 0)
(-0.050791382194256315397 -0.087147329709838725065 0)
(-0.055344475435903491001 -0.12468275291700535445 0)
(-0.059054976643150083881 -0.1596869586683856701 0)
(-0.059684572306625154059 -0.18849191726585159956 0)
(-0.054663872792532153255 -0.20491028482079504114 0)
(-0.041954968302155670745 -0.19957796435236208055 0)
(-0.022954853950119848138 -0.16000125016820032631 0)
(-0.0061901824802187109531 -0.072444274118863880019 0)
(-0.0072349837150871695521 0.079105075228192378578 0)
(-0.022749538235613903092 0.16523326677091182413 0)
(-0.034607744276113475146 0.19860243213875997115 0)
(-0.036586787543574694759 0.19931838093671316869 0)
(-0.029975313736229244194 0.18167405255348395565 0)
(-0.018392852065020684482 0.15464587015587069607 0)
(-0.0051263733159536166092 0.12337810652153209656 0)
(0.0072860167604388752574 0.090516088013422313363 0)
(0.01702626417152940802 0.057200540507948240132 0)
(0.022888698768449344811 0.023711022014806546615 0)
(0.024173838919102928757 -0.010130929905030382557 0)
(0.020641625371356251556 -0.044677136662451107096 0)
(0.012547776876409597741 -0.080185981673179779206 0)
(0.0007678641658485137883 -0.11647916969218713445 0)
(-0.013009716037860885596 -0.15241238297882067632 0)
(-0.026086891669649139164 -0.18503010713326176195 0)
(-0.034688567622331731299 -0.20831034066622844403 0)
(-0.034495237438873428693 -0.21164027333858079216 0)
(-0.023539859846987632591 -0.17849231760859832208 0)
(-0.0076706572820959724457 -0.086378056661125204863 0)
(-0.0093096907036846338057 0.094427941229157680292 0)
(-0.0225044818279887468 0.17826648072509448939 0)
(-0.021137844324330974655 0.19941391101374064676 0)
(-0.0051289423107450608091 0.18931769746862309178 0)
(0.019343257138541798679 0.16508057493215949618 0)
(0.046465863145739916273 0.13562264215747546481 0)
(0.072199545836982070846 0.10519539559668414364 0)
(0.093948685772270654204 0.075467781816514006854 0)
(0.11011425446167651121 0.04679540886703628666 0)
(0.11972764211935410517 0.018882064106669219083 0)
(0.12221080551208685083 -0.0088969372318526748072 0)
(0.11726934513664255544 -0.037315631108503992397 0)
(0.10490999222607491626 -0.067143605318673291182 0)
(0.085592327199537771021 -0.098923310149135787461 0)
(0.060541988131519966498 -0.13254037574714788716 0)
(0.03223576340133874063 -0.16636359901119854299 0)
(0.0049659588865002372848 -0.19564880176099574971 0)
(-0.014857207862382331223 -0.21006679275319176115 0)
(-0.020067804363160031411 -0.19014820488273326271 0)
(-0.0089379355844212207693 -0.10157722834816830526 0)
(-0.0097810760214511079103 0.11379401144047980587 0)
(-0.013412361522713564521 0.18112339450512504602 0)
(0.014036214271288514205 0.18107233387347967946 0)
(0.057540627137314497019 0.1587360604533030739 0)
(0.10454648245315507904 0.13031281827572796517 0)
(0.14862450188493619985 0.10208839717407978964 0)
(0.18645985422486538452 0.076194902423284652238 0)
(0.21643446003551941592 0.052875019224448406574 0)
(0.23785105219426921908 0.031650741829998350896 0)
(0.25039120794362207389 0.011790381231914812826 0)
(0.25381861932956867323 -0.0075524969101853564601 0)
(0.24785861067088063581 -0.027311478328230536644 0)
(0.23219028974301711421 -0.048494618272268509573 0)
(0.20656155109392435043 -0.072136761867648641067 0)
(0.17111107286699972496 -0.099102773079765588138 0)
(0.12701399825246659225 -0.12948732590447423196 0)
(0.077425391286358585807 -0.16113759102721056382 0)
(0.028902252146726974125 -0.18681323297591423405 0)
(-0.0053945500271058606512 -0.18820312432031227612 0)
(-0.0076778182310540815658 -0.11814929894506148722 0)
(0.0011118311652604882106 0.12887375091361347179 0)
(0.024366145453966637363 0.1546763284080379941 0)
(0.096908845914914165665 0.12846042222933376498 0)
(0.17603206913973479253 0.099586503986116986509 0)
(0.24538813973780426725 0.074760685894311923461 0)
(0.30268013982258012984 0.054488030005196780303 0)
(0.34795977188571969307 0.03812815875776082164 0)
(0.38184636407382155365 0.024711924854182786698 0)
(0.40514864500475195053 0.013353458787157011789 0)
(0.41848018056906066686 0.0033095461945745071296 0)
(0.4220812375130301719 -0.0060897458169862127633 0)
(0.41577150491310604918 -0.015526024680368684383 0)
(0.39892586220381959228 -0.025790487477116878084 0)
(0.37047398506162937393 -0.037863538151750995853 0)
(0.32903801068168792021 -0.05298450041209871314 0)
(0.2733692315639727477 -0.072564543007268930697 0)
(0.20293227246108791473 -0.097605416107223466615 0)
(0.11959332110759579582 -0.12716806734922456168 0)
(0.039186314232903793342 -0.15263567330027638658 0)
(0.0056769820502587491073 -0.12537874197566933887 0)
(0.070006476229504954745 0.060648722928706683133 0)
(0.1537316622717607717 0.031195523165467448079 0)
(0.28265333391528618678 0.0081934863951278556066 0)
(0.38983225088123030222 -0.001222647441451566808 0)
(0.46736845735634330312 -0.0050446428066599074969 0)
(0.5240856071519156556 -0.0066764005727116496752 0)
(0.56552445841753506972 -0.0073434909538483295749 0)
(0.59486406063643093578 -0.0074750129194069226193 0)
(0.61423090900328713992 -0.0071799139725010705654 0)
(0.62492610640985613024 -0.0064512741210516390961 0)
(0.62753686130799968268 -0.0052513923840216292921 0)
(0.62199963064788887923 -0.0035508639342021197649 0)
(0.60758237263474634826 -0.001367794135893781772 0)
(0.58275826905345562423 0.0011862182589005255354 0)
(0.54500468465761786607 0.0038211933435591889825 0)
(0.4905753284029908956 0.0058562635862899241682 0)
(0.41348014497397034273 0.0057187273795696923553 0)
(0.30434242494901531106 -0.00016560760967326317028 0)
(0.16892312022655836534 -0.018823319065259361965 0)
(0.072219988673424106995 -0.045840913207337796731 0)
(0.3977661649615020778 -0.21084579648474421898 0)
(0.55410488690505455001 -0.18982785973285226655 0)
(0.67676449976131147768 -0.13644985444493429316 0)
(0.75170011062226282927 -0.098611723808977175265 0)
(0.79538466614903047258 -0.072422056017473618317 0)
(0.82347450636175134608 -0.053934728443514740048 0)
(0.84246186635250541741 -0.040533389584514092907 0)
(0.85519574720333846329 -0.030218129759421563652 0)
(0.86323505927931842852 -0.021558704335611678787 0)
(0.86743481794011689789 -0.013530982388332996394 0)
(0.86817239466919760016 -0.0053319489493350849182 0)
(0.8654439639626960723 0.0037593342087213444877 0)
(0.85885104473584650275 0.014509076668128850079 0)
(0.84747446865643860647 0.027869805374636461709 0)
(0.82958336622590200804 0.045201620002452647107 0)
(0.8019892746791283944 0.068583943320809165334 0)
(0.75787401777393725855 0.10114233796517488329 0)
(0.68088173950193953132 0.14781496253415504771 0)
(0.54923419443979348831 0.21285634708523065717 0)
(0.36767233441827829044 0.23263654394320515406 0)
)
;

boundaryField
{
    movingWall
    {
        type            fixedValue;
        value           uniform (1 0 0);
    }
    fixedWalls
    {
        type            fixedValue;
        value           uniform (0 0 0);
    }
    frontAndBack
    {
        type            empty;
    }
}


// ************************************************************************* //
