/*--------------------------------*- C++ -*----------------------------------*\
| =========                 |                                                 |
| \\      /  F ield         | OpenFOAM: The Open Source CFD Toolbox           |
|  \\    /   O peration     | Version:  2412                                  |
|   \\  /    A nd           | Website:  www.openfoam.com                      |
|    \\/     M anipulation  |                                                 |
\*---------------------------------------------------------------------------*/
FoamFile
{
    version     2.0;
    format      ascii;
    arch        "LSB;label=32;scalar=64";
    class       volScalarField;
    location    "0.6";
    object      p;
}
// * * * * * * * * * * * * * * * * * * * * * * * * * * * * * * * * * * * * * //

dimensions      [0 2 -2 0 0 0 0];

internalField   nonuniform List<scalar> 
400
(
-0.039614211009351633919
-0.044494793326473672246
-0.050169228125047628242
-0.054173402080877570974
-0.055139350108616466684
-0.052496811357519324037
-0.046252949744403137888
-0.036814206020002022968
-0.024856625890050287192
-0.01124126738612685715
0.0030462818412646240109
0.016950119159938596691
0.029405042407932846515
0.039414392104259739213
0.046152110846344386597
0.049095884703528769322
0.048197383220618311706
0.044077880103299091341
0.038231248649805385509
0.033255186360021296577
-0.03477570250883660341
-0.039791247580373341475
-0.044180576033421660453
-0.04679306065320951169
-0.047006240038014124316
-0.044422155242111481532
-0.039021119073587538784
-0.031096905813340170593
-0.021164717416053080434
-0.0099002204498758895196
0.0019095391892694358726
0.013415874295690079568
0.023765417636140588609
0.032169447211597833325
0.037987468856718165089
0.04082855199452385675
0.040676969212602977211
0.03797100581224501642
0.033435633329001950009
0.028330946837173236197
-0.028779392781787739575
-0.035661823578702733784
-0.040378795673180326031
-0.042708666216127483262
-0.042735047807687789878
-0.040264772658124219074
-0.035333176665449952947
-0.028217351012956842088
-0.019362374271327198461
-0.0093428631457809583477
0.001169329887977763353
0.011443926710995009494
0.020740039048338328176
0.028364594556145657223
0.033739530424354985394
0.036481984817732585058
0.036514125936488145419
0.034066019640942857283
0.02915845587638627584
0.022136561672041869114
-0.023768677262895908375
-0.033132171223390911863
-0.038941269852000713614
-0.041575960958932650646
-0.041700259576094834968
-0.039308339772961595204
-0.034522723781919444075
-0.027656161328026524632
-0.019141554059183347319
-0.0095115004555374280809
0.00061655668398189009821
0.01056569697927872524
0.019635883754920011729
0.027151165298637036649
0.032513911807664011566
0.035274009225333198547
0.03524388063689763706
0.032459813965866800289
0.026374107222107125159
0.016768885459479486444
-0.021131313244960710229
-0.032993407933895532724
-0.040045409474897916691
-0.04310480140431106888
-0.043323233877121336555
-0.040858255788805718234
-0.035923753657010393248
-0.028886193296903985017
-0.020191553473489082249
-0.010359207829451721333
1.6517443970341526727e-05
0.010277801371666978048
0.019727381944948597231
0.027664550739942398577
0.033428688113973113738
0.036463640900664180677
0.03644908970226325845
0.033239205468373743402
0.02580454271550516529
0.013537762136203376762
-0.02187841828319626869
-0.036137538603484987976
-0.044391524202052418113
-0.047804725766717390267
-0.047958749520643911834
-0.045159265181145165358
-0.039712620854907350332
-0.032048801980528396349
-0.022642043735315704744
-0.01201669525060920958
-0.0007643466308298868658
0.010453329043844055909
0.020915395952143985003
0.029865813685012180395
0.036547142326715784111
0.040263935429464346727
0.04053805246822092534
0.037036849147243110225
0.02828751803309363308
0.013380950966207826383
-0.026875684593830568431
-0.043421321023394111871
-0.052731366582837523038
-0.056285831721823810503
-0.056082377846932256193
-0.052576415756440592064
-0.046172575822403166823
-0.037371872853079128596
-0.026685188543411016149
-0.014650684510479339978
-0.0018668664061814751846
0.01098905904135569038
0.023156926038614657898
0.033803916052410384885
0.0420471604809597721
0.047017159181158077463
0.048041875401158500025
0.044571280419223209546
0.034668933540354072986
0.017139052992295823741
-0.037015026093565571441
-0.055737423505917593758
-0.0658563859285586084
-0.069191782932367232317
-0.068192220740422360148
-0.063486243148373019962
-0.0555905778794921826
-0.045083938802261365464
-0.032515154921913876074
-0.018434057782231148132
-0.0034425654349712043155
0.011768961844332187158
0.026399200884502184439
0.039528411494167269014
0.050125804202861980186
0.057110311661017876261
0.059564905109893068191
0.056658991913242848226
0.04590703985675196469
0.025772034857309219363
-0.05334817077094678589
-0.074117719534519690971
-0.084668775544715774162
-0.087244140633582448197
-0.084833040290652056425
-0.078286231658041438575
-0.068255881991616820792
-0.055404180989567952675
-0.04031103319227100773
-0.023523057111008154052
-0.0056266413766737936528
0.012693925864019168712
0.030611134787486341674
0.047123035068056554064
0.061037787571745549808
0.071024305549830968332
0.075853269544841880889
0.074312627424983276891
0.063211023304751701168
0.040541653994261038496
-0.077210293821031117378
-0.09982592958648857373
-0.11022437516783302469
-0.11123882103893523166
-0.10655919399749502752
-0.097337762141386174886
-0.084394136609947961736
-0.068475918690200213157
-0.050175616046195380127
-0.030005661281678676355
-0.0084991108647958762273
0.013705896990104916855
0.035792693653111370966
0.056703301187733035071
0.075088772258550443017
0.089335784606902945981
0.097822640640434416204
0.098813292840216657154
0.088170123418030460494
0.06318914633018374305
-0.11038513489449203187
-0.13447104451097705025
-0.14376938732510183283
-0.1420164431411349848
-0.13386085565349506443
-0.12086886783409504786
-0.10406236300893713376
-0.08426453749814726002
-0.062043359427060906786
-0.037824497671264008247
-0.012026400811795479387
0.014824844877362335777
0.041989287873016936659
0.068410454316357532933
0.092616673775562430304
0.11270151208807713261
0.12656957796109016834
0.13177750628567352909
0.12290002313105186094
0.096155776634694128946
-0.15538305024259549403
-0.18016432509530086459
-0.18676404103663257761
-0.18039226301787678053
-0.16704206631630350022
-0.1488314777709398018
-0.12700541323012026762
-0.10242443405023184122
-0.075563713672989071823
-0.046680041250831742772
-0.01598738924349458676
0.016196630225826940536
0.049310491854161135616
0.082400267948381386574
0.11395600365181066116
0.14181495452733708373
0.16335148857758821639
0.17520642434931349429
0.17021774989256110988
0.14290528555281381551
-0.21598851329878235306
-0.23976454909363489887
-0.24087492255506090522
-0.22701413254632421546
-0.20602560168925421191
-0.18070037854197254501
-0.15247333945912305841
-0.12214412468344773566
-0.089975616330746813198
-0.055933743959664404544
-0.019905174485352644664
0.018130334017279953196
0.057931991199122824521
0.098805234596325230978
0.13936183398768184349
0.17730884052462764222
0.20950910612785988985
0.2315040156029850027
0.23388241343076762724
0.20848377472457943482
-0.29846335992793343594
-0.31737365424806984748
-0.30798481085178153194
-0.28217122047968634657
-0.25011104856161353593
-0.21525225307144291165
-0.17904902983842288511
-0.14202530773338800651
-0.10403062836072876629
-0.064566382878240902166
-0.023034607961991422631
0.021082603048187965877
0.068047478908049810475
0.11764647949722677189
0.1688789038018343458
0.21960012132791323358
0.26634815992631000192
0.30352225956752160174
0.31905391242777514371
0.30064595538725763513
-0.41359463854393391236
-0.41884008921270599046
-0.389938592637843362
-0.34536921580787849351
-0.29758691071459003608
-0.25029100364437584236
-0.20449823089840832302
-0.16003628914582565534
-0.11602180098445809275
-0.071259638877601713669
-0.024483018198966973594
0.025500047153309921694
0.079664230973049768303
0.13856077989242771009
0.20197472420861986575
0.26842664329615673058
0.33463878726238305283
0.39419547334087939872
0.43254002983932143822
0.43147903623568734099
-0.57789594877539940398
-0.54958921245424030566
-0.48585592420310974582
-0.41327338033019800356
-0.3442987244739146302
-0.28173284033616946553
-0.22525633086437979458
-0.17328610849719394693
-0.12376048110427799454
-0.074525423682841859807
-0.023472810379328259978
0.031414280235131784857
0.09201500324874752057
0.15995107433407296238
0.23630847420889214416
0.32108768988569919012
0.41217661567535224254
0.50338563768483168825
0.57984938007305286689
0.6173420103189731778
-0.81921141443844858188
-0.71114604457400620863
-0.58783915720607182731
-0.47704067950570816503
-0.38217905438065691293
-0.30290106271335681676
-0.23620275050128020089
-0.17807843794666067261
-0.12478101284301917895
-0.072997367107494423588
-0.019701427401339673823
0.038008923140416567277
0.10301284472894178812
0.17824943223609807097
0.26666886623955843305
0.37083564350990710912
0.4912608167163863282
0.62401300516170410404
0.76180174438387215918
0.88262549528596456749
-1.2384850419661657117
-0.93129144790809514909
-0.69955582770471458343
-0.53581557355178366375
-0.40998325552983544418
-0.31313389185109158364
-0.23746924451147427559
-0.1751790028241767827
-0.12024245081185540307
-0.068046351183167513854
-0.014674314849769047597
0.043660914369985134864
0.11084829159253657693
0.19135692344705548806
0.29068776385226241521
0.41552092806149781845
0.57145752986676634499
0.7617091228963656091
1.0073225450278193716
1.3177419001871504278
-2.0740310598637701212
-1.2878080846192130338
-0.84586062693454078243
-0.60490934962562836752
-0.44123724504196826235
-0.32512947167514899549
-0.24072674208958944053
-0.175022909822522027
-0.11922768301453794126
-0.067271842241361345938
-0.01431615636487111945
0.044052906653490458977
0.11273092966023857964
0.19778905274689909111
0.30783412370366985966
0.45555352732863146903
0.65675621093265823536
0.93536991363395738386
1.386913986595451842
2.130534852198167961
-2.6363913669072140955
-1.2816163492432393056
-0.73069717630744646097
-0.49250831040415887774
-0.3476067945904672829
-0.25163694218016441351
-0.18527191714306376347
-0.13549915077978808009
-0.094311715875820961719
-0.05647464149071933226
-0.018001093176996614542
0.024699212140201987076
0.075519991399552940936
0.13955586287628127251
0.22460973714043172555
0.34401671009253298461
0.52059711809454722875
0.80325683726141394736
1.3752993135905131616
2.601383405256915804
)
;

boundaryField
{
    movingWall
    {
        type            fixedValue;
        value           uniform 0;
    }
    fixedWalls
    {
        type            zeroGradient;
    }
    frontAndBack
    {
        type            empty;
    }
}


// ************************************************************************* //
