/*--------------------------------*- C++ -*----------------------------------*\
| =========                 |                                                 |
| \\      /  F ield         | OpenFOAM: The Open Source CFD Toolbox           |
|  \\    /   O peration     | Version:  2412                                  |
|   \\  /    A nd           | Website:  www.openfoam.com                      |
|    \\/     M anipulation  |                                                 |
\*---------------------------------------------------------------------------*/
FoamFile
{
    version     2.0;
    format      ascii;
    arch        "LSB;label=32;scalar=64";
    class       surfaceScalarField;
    location    "0.6";
    object      phi;
}
// * * * * * * * * * * * * * * * * * * * * * * * * * * * * * * * * * * * * * //

dimensions      [0 3 -1 0 0 0 0];

oriented        oriented;

internalField   nonuniform List<scalar> 
760
(
1.0077216803923151676e-08
-1.0077193976182193345e-08
-2.3700058380511524733e-08
3.3777423470578614624e-08
-1.0347523015104871765e-07
7.9775060546757878759e-08
-2.1460977214436364425e-07
1.1113419441496992117e-07
-3.4051484664809383877e-07
1.2590471710916647371e-07
-4.6593877632323619887e-07
1.2542388571933050644e-07
-5.7800925737568815309e-07
1.1207089089807448708e-07
-6.6656092472129315401e-07
8.8552343543231171713e-08
-7.2413031176904400625e-07
5.7569918845270482466e-08
-7.4590935738142050821e-07
2.1779083740357607281e-08
-7.2978830341753738437e-07
-1.6121547786648744234e-08
-6.7651247463966577095e-07
-5.3276549954614892769e-08
-5.8992087373460242082e-07
-8.6592103520359777242e-08
-4.7719394851091770193e-07
-1.1272691209278398831e-07
-3.4899731334328832738e-07
-1.2819614018770300095e-07
-2.1933768598079990802e-07
-1.2965897660425056917e-07
-1.048476345909099927e-07
-1.1448963508065017683e-07
-2.3201782029095139923e-08
-8.1645872817126160304e-08
1.0720318821086843948e-08
-3.3922458723700507873e-08
1.0719943871829634358e-08
-3.2183806354640694179e-08
2.2106469141460080865e-08
-1.5928503568979034103e-07
1.6087897450241389267e-07
-3.7444556063059030928e-07
2.9493603516736522286e-07
-6.5088223885437823932e-07
3.8757116166164940908e-07
-9.5568807184248146257e-07
4.307104437513499771e-07
-1.2563142606559018679e-06
4.2604963860941023234e-07
-1.5238787779295592829e-06
3.796349769183948014e-07
-1.7347774814271769741e-06
2.9945098028985171597e-07
-1.8713737474593156274e-06
1.9416659431607942719e-07
-1.9223261303323108504e-06
7.273212929752959755e-08
-1.8828688038119425134e-06
-5.5578361043487838537e-08
-1.7551589809711457276e-06
-1.809863182718130504e-07
-1.5486586651212510457e-06
-2.9309284131755378518e-07
-1.2803922414054875582e-06
-3.8099395946260729595e-07
-9.7480608139923723036e-07
-4.3378274322830942742e-07
-6.6282244656759787069e-07
-4.4164263138295618613e-07
-3.7954254772106786904e-07
-3.9776917287528838653e-07
-1.5997682650085389826e-07
-3.0121115795259082524e-07
-3.1611574132586287563e-08
-1.6228750204391992604e-07
-2.0891919782326886168e-08
-8.0498847506055849894e-08
1.0260503627614120733e-07
-3.0489063751421364514e-07
3.8527077420610160201e-07
-6.4503741363143664219e-07
6.3508319693671901203e-07
-1.0612559757972633815e-06
8.0379027470098468203e-07
-1.509032309090188328e-06
8.7848710483111608998e-07
-1.944793368381288997e-06
8.6181053134221457832e-07
-2.3296537528746604729e-06
7.6449479184846125701e-07
-2.6315722547232452986e-06
6.013689150010123889e-07
-2.8264784828302922289e-06
3.8907268070730809609e-07
-2.8988865615248366013e-06
1.451406271503986533e-07
-2.8423498874334209339e-06
-1.121142973507365169e-07
-2.6599172127406425479e-06
-3.6341838587227344296e-07
-2.3645670950041944549e-06
-5.8844284094774519023e-07
-1.9794298145429108473e-06
-7.6613165301757212813e-07
-1.5374516072957606106e-06
-8.757616057368522783e-07
-1.08002574622972872e-06
-8.9906896725403182629e-07
-6.540597961668483079e-07
-8.2373514222641386184e-07
-3.0705750347589867799e-07
-6.4821308369888457427e-07
-8.0070580433165649207e-08
-3.8927398739586900194e-07
-1.0096244864892963421e-07
-1.2313389425681407189e-07
2.2573876095144120307e-07
-4.392060604011735724e-07
7.0134259350655089001e-07
-8.9596927509977403492e-07
1.0918464451935996451e-06
-1.4380441124103497354e-06
1.3458655900515589064e-06
-2.0096646117263807882e-06
1.4501082567434562558e-06
-2.5586257626304682365e-06
1.4107720326131856647e-06
-3.0392699262102948018e-06
1.2451387251532120855e-06
-3.4143259633519238942e-06
9.7642428474475528734e-07
-3.6559078087018730607e-06
6.3065388385992526795e-07
-3.7460714042172546771e-06
2.3530405283292479685e-07
-3.6772530183902636197e-06
-1.8093225311073916818e-07
-3.4527575788459727378e-06
-5.8791305822818999138e-07
-3.0872848343604767946e-06
-9.5391494735111505727e-07
-2.6073007019739459145e-06
-1.2461156414456429933e-06
-2.0508925724942766292e-06
-1.4321701227169486562e-06
-1.4666271358797385118e-06
-1.4833350229881368188e-06
-9.1093263349918810797e-07
-1.3794300723921642979e-06
-4.4376611932219842872e-07
-1.1153795880325675833e-06
-1.2299576832526279962e-07
-7.1004397113495132989e-07
-2.2395785456797164217e-07
-1.6074274860087396073e-07
3.8648166686409474398e-07
-5.6184778677608809553e-07
1.1024471146454484647e-06
-1.1275458567294039045e-06
1.6575440894708600712e-06
-1.7854732498686506504e-06
2.0037930113828872035e-06
-2.4683169964649516031e-06
2.1329525779604243768e-06
-3.1162702595319069699e-06
2.0587260486684910249e-06
-3.6787957573736795969e-06
1.8076646333125862856e-06
-4.1155440253788284525e-06
1.4131723341624444986e-06
-4.3966915548364944187e-06
9.1180071868657077029e-07
-4.5030541910547662734e-06
3.4166598758097864401e-07
-4.4262792520331757331e-06
-2.5770744277110823053e-07
-4.1692891340657304072e-06
-8.4490282244857056488e-07
-3.7469815233775936013e-06
-1.3762218271457889098e-06
-3.1870080576763503499e-06
-1.806088442843475999e-06
-2.5302690532979231044e-06
-2.0889089009719318884e-06
-1.8306154126753862701e-06
-2.1829889425134332712e-06
-1.1532233757518417036e-06
-2.0568226309404510219e-06
-5.7132530431346310399e-07
-1.6972780192099102516e-06
-1.6160368949446078271e-07
-1.1197655495732381512e-06
-3.8556112528571625433e-07
-1.9542979695082931568e-07
5.8191194336921214063e-07
-6.7648996389665035336e-07
1.5835069611037915101e-06
-1.3445544563694410138e-06
2.3256079568679714704e-06
-2.1097602749297620216e-06
2.7689983358023135e-06
-2.8931960552113515315e-06
2.9163884304477199108e-06
-3.6283091686821362412e-06
2.7938398186444138356e-06
-4.2612410193500420798e-06
2.4405973151077278518e-06
-4.7503820182725295344e-06
1.9023137971326232853e-06
-5.0655898998979279112e-06
1.2270084119316089554e-06
-5.1874929998608205312e-06
4.6356839694077807331e-07
-5.1072039269218514137e-06
-3.3799724911071356788e-07
-4.8266349424134177192e-06
-1.1254721243770016141e-06
-4.3594495059897796392e-06
-1.843406986781162093e-06
-3.7325019523703136308e-06
-2.4330353156475902844e-06
-2.9874052269636588834e-06
-2.8340049600016518055e-06
-2.181646265029449226e-06
-2.9887476225249762255e-06
-1.3885179362252063398e-06
-2.8499511470776819785e-06
-6.9519632018050126157e-07
-2.3906000352712257205e-06
-1.9867630627049070398e-07
-1.616285815524078755e-06
-5.8423723657542868431e-07
-2.2914827094439415173e-07
8.110607385895807124e-07
-7.8701420677060676757e-07
2.1413730297467275633e-06
-1.5515122142827316952e-06
3.0901055807738088363e-06
-2.4148423543120162915e-06
3.6323277777969252352e-06
-3.2868871947570477193e-06
3.7884327585472294956e-06
-4.0956570171204843559e-06
3.6026097334259132344e-06
-4.7858890213657497579e-06
3.1308300134759301097e-06
-5.3167891953108436712e-06
2.4332148405355419766e-06
-5.6596965701368435146e-06
1.5699162979700519155e-06
-5.7962340590903340214e-06
6.0010575908526129059e-07
-5.7173184996376215876e-06
-4.1691344328876156662e-07
-5.4232478124379840322e-06
-1.4195435294717475432e-06
-4.9249431202881493745e-06
-2.34171203908180952e-06
-4.2462548997964907947e-06
-3.1117233435463365395e-06
-3.4270014337405028629e-06
-3.6532578299144758782e-06
-2.5260773211033715253e-06
-3.8896711120903212726e-06
-1.6236052464588601721e-06
-3.7524229155832288435e-06
-8.20873904403215256e-07
-3.1933314601598225938e-06
-2.3682684804575884886e-07
-2.2003331377992371618e-06
-8.2106420130152013204e-07
-2.634879724632389185e-07
1.074548915142736624e-06
-8.9635281810335999711e-07
2.7742384064537388541e-06
-1.7506527362565083586e-06
3.944405658945597797e-06
-2.6999590415258422424e-06
4.5816336820930053767e-06
-3.6439486976167639706e-06
4.7324216740513355486e-06
-4.5074133720109699726e-06
4.4660738736676202404e-06
-5.2364849689071607107e-06
3.8599016947214125525e-06
-5.7939773700711513969e-06
2.9907079245227615877e-06
-6.1550432268432274795e-06
1.9309830248200139277e-06
-6.3038557803055053093e-06
7.489188680256407281e-07
-6.2317071726995917815e-06
-4.8906208469484749296e-07
-5.936745680014801006e-06
-1.7145055533643344735e-06
-5.4254809982570184645e-06
-2.8529773806800905284e-06
-4.7160707304618218027e-06
-3.8211339918018986806e-06
-3.8431619732708844397e-06
-4.5261664817303785409e-06
-2.8636161628279674695e-06
-4.8692164336107028201e-06
-1.861791949750107417e-06
-4.7542465737404266589e-06
-9.5237437963433429246e-07
-4.1027487186261136549e-06
-2.7819276830852482968e-07
-2.8745147672611839428e-06
-1.0992572430900986985e-06
-2.9974658446790112286e-07
1.3742952070141244813e-06
-1.0061352827373621586e-06
3.4806276956696205824e-06
-1.9408284697609065849e-06
4.8790994775944639385e-06
-2.9578347881441906976e-06
5.5986402065539879336e-06
-3.9486055306810070018e-06
5.7231919868775795452e-06
-4.8383403020330069576e-06
5.3558078881888056109e-06
-5.5786970870621965378e-06
4.6002579370011833197e-06
-6.1399409030449504578e-06
3.5519517923588167896e-06
-6.5041274004976102439e-06
2.2951701481339961505e-06
-6.6600640464209950699e-06
9.0485634777350207105e-07
-6.6003416352355891739e-06
-5.4878390768429971279e-07
-6.3205879379744375697e-06
-1.9942591786651834978e-06
-5.8211140056903055214e-06
-3.3524517130881136077e-06
-5.1111383461881548652e-06
-4.5311102208511638516e-06
-4.2156170467628337729e-06
-5.4216881535184458069e-06
-3.1842011074772334341e-06
-5.9006323369036175813e-06
-2.1008633679637471701e-06
-5.8375839255578972406e-06
-1.0913835870048523454e-06
-5.1122280395097873207e-06
-3.2437161298101620511e-07
-3.6415264815590015288e-06
-1.4236290434901015411e-06
-3.3924183057261585183e-07
1.7135364104756516994e-06
-1.1167457315768347476e-06
4.2581318721288433874e-06
-2.1166474366083448937e-06
5.8790018840548830895e-06
-3.1726814379156489983e-06
6.654674902956449923e-06
-4.1718253707241148494e-06
6.7223361178729399109e-06
-5.0454050595795202916e-06
6.2293871617989023476e-06
-5.7564853876502378654e-06
5.3113375431606006235e-06
-6.2878504716151932346e-06
4.0833163423218866322e-06
-6.6323383501383480085e-06
2.639658023366752338e-06
-6.7860064193693533837e-06
1.0585249445991919202e-06
-6.7440774485707535407e-06
-5.9071211960784358551e-07
-6.4996003748991859042e-06
-2.2387356571563228055e-06
-6.0449965071237649278e-06
-3.8070554129738422283e-06
-5.376926184391174467e-06
-5.1991808055750149417e-06
-4.5049803985186081029e-06
-6.2936343956868671869e-06
-3.4642884713031973684e-06
-6.9413245962185376802e-06
-2.3308979740381453379e-06
-6.9709744265060827304e-06
-1.2365644625895537672e-06
-6.2065612708424406645e-06
-3.7650744900442308557e-07
-4.5015831552173454875e-06
-1.8001364676329391957e-06
-3.8380297262838633748e-07
2.0973388229403990868e-06
-1.2273170358966709298e-06
5.1016457575295034429e-06
-2.2669248447054841812e-06
6.9186100255019156952e-06
-3.3168974166989287125e-06
7.7046481997011754942e-06
-4.2667429910278520776e-06
7.6721823784509343203e-06
-5.0626519425397473778e-06
7.0252963363629728275e-06
-5.6870300275414799025e-06
5.9357152862499555602e-06
-6.1413523297102434289e-06
4.5376380055565617211e-06
-6.4336176691024191433e-06
2.9319228526289093978e-06
-6.5700299529836339579e-06
1.1949371566337891056e-06
-6.5501173024725135762e-06
-6.1062436977193184717e-07
-6.3647868749438963086e-06
-2.4240654359416997692e-06
-5.997404349456082306e-06
-4.1744373719220846612e-06
-5.428640790366324754e-06
-5.7679441298307027486e-06
-4.6463286002709627422e-06
-7.0759467232904125122e-06
-3.6615477585819347506e-06
-7.926105775001919906e-06
-2.530974292534680988e-06
-8.101548164815021956e-06
-1.3824455967402317344e-06
-7.3550899973420422027e-06
-4.3540793031815421847e-07
-5.4486206308840062505e-06
-2.2355442258233776918e-06
-4.3641787844419383647e-07
2.5337565692935262382e-06
-1.3349401092751771152e-06
6.0001675504279193316e-06
-2.3709639507740031745e-06
7.9546336736241562412e-06
-3.3446618362783862489e-06
8.6783463829855612645e-06
-4.1608202467351348161e-06
8.4883414834294079374e-06
-4.7933013308612968509e-06
7.6577780972324786059e-06
-5.2537368026400177502e-06
6.3961510340571009218e-06
-5.5688675978412394949e-06
4.8527685756644037258e-06
-5.7659017744568387607e-06
3.1289565093652576767e-06
-5.8637178396399870615e-06
1.2927527553165177564e-06
-5.8678721974403300936e-06
-6.0647014773760471536e-07
-5.7682333505964663662e-06
-2.523704018939521365e-06
-5.5391386669893407418e-06
-4.4035315412095976908e-06
-5.1431091779110827002e-06
-6.1639731185784429088e-06
-4.5402955627437476156e-06
-7.6787600787723876299e-06
-3.7066565114615473222e-06
-8.7597448732011328463e-06
-2.6634269080166818653e-06
-9.1447780041366725037e-06
-1.5170872076193705229e-06
-8.501429905553785051e-06
-5.0158115396210101895e-07
-6.4641267142922973046e-06
-2.7371252211827858201e-06
-5.0182521348497007755e-07
3.035582148031622107e-06
-1.4314481043507783408e-06
6.9297901111593882429e-06
-2.3897782549382588936e-06
8.9129633298889478481e-06
-3.1792945015484344092e-06
9.4678623819143646877e-06
-3.742222649889405594e-06
9.0512698894895312495e-06
-4.0975499314234200331e-06
8.0131060093990546649e-06
-4.2967952404656544369e-06
6.5953969896760267103e-06
-4.3971901634321621506e-06
4.9531638330700613295e-06
-4.4472417877096370313e-06
3.1790080460495261639e-06
-4.4794807117354830148e-06
1.3249913031363233056e-06
-4.5066625145335737445e-06
-5.7928874276800396312e-07
-4.5194606266141901474e-06
-2.5109060840852043262e-06
-4.4852655409001165044e-06
-4.4377264877311723221e-06
-4.3492599021062912379e-06
-6.2999783855812599236e-06
-4.0407968323499472897e-06
-7.9872227451952997258e-06
-3.4902935149924247134e-06
-9.3102479515464584459e-06
-2.6633480525333755987e-06
-9.9717234693865732068e-06
-1.6168822197332782349e-06
-9.5478958945633084888e-06
-5.747996369089705789e-07
-7.506209441456055313e-06
-3.3119248194130678299e-06
-5.8572025094778819142e-07
3.6213030027426518517e-06
-1.4933966447537327654e-06
7.8374665418054575999e-06
-2.2461917403846976788e-06
9.6657580466009439583e-06
-2.6888699163223560985e-06
9.9105400511279205457e-06
-2.8367110971918502135e-06
9.1991108163561197554e-06
-2.7743536804187525149e-06
7.9507487715506120233e-06
-2.6011538791050497251e-06
6.4221977068183787145e-06
-2.4053110403362143731e-06
4.7573215778367050632e-06
-2.2541774706886582869e-06
3.0278748532453989932e-06
-2.1916623538414902132e-06
1.2624762311279083799e-06
-2.2374196767269179273e-06
-5.335316455359339174e-07
-2.3853718519146479039e-06
-2.362954216482463204e-06
-2.600944994189914004e-06
-4.2221535325580943315e-06
-2.8179626787593060517e-06
-6.0829606584132388348e-06
-2.9384425605264978017e-06
-7.8667426247000532834e-06
-2.8423047107302518993e-06
-9.4063855110957713811e-06
-2.418843288163955868e-06
-1.0395184710300653318e-05
-1.6344713911523452952e-06
-1.0332267784102801189e-05
-6.5155938880595862151e-07
-8.4891215529804321682e-06
-3.963484275797900022e-06
-6.8763336955569968646e-07
4.3089368298100125533e-06
-1.4533316508888282606e-06
8.6031651877256455955e-06
-1.7807299151145556416e-06
9.9931563237326762462e-06
-1.6405517864352320276e-06
9.7703615943133292389e-06
-1.1702265627010618933e-06
8.7287851471186445236e-06
-5.361171642224738868e-07
7.3166391023743573624e-06
1.1690563037595370348e-07
5.7691749832804315988e-06
6.7928934383491570645e-07
4.1949382390967766569e-06
1.0750152372869806728e-06
2.6321494485396421273e-06
1.2560968862673317092e-06
1.0813949662060702902e-06
1.1987641050194631069e-06
-4.7619871942230098246e-07
9.03277174065187965e-07
-2.0674673771385193588e-06
3.9795392775935428161e-07
-3.716830495114201971e-06
-2.5280953140548588644e-07
-5.4321973663846844914e-06
-9.3860048414952763537e-07
-7.1809516899110007983e-06
-1.4978071117537241605e-06
-8.8471787534588361375e-06
-1.7325766645284361046e-06
-1.0160414978282547395e-05
-1.4695457752140049918e-06
-1.0595298564441017332e-05
-7.1553821967940227982e-07
-9.2431291227338753161e-06
-4.6790225864437427631e-06
-7.7368713507912772495e-07
5.0826240471924949438e-06
-1.1238766978875804262e-06
8.9533551572406297502e-06
-6.5876381393236894109e-07
9.5280437753250016259e-06
3.7896912471215259539e-07
8.732628727545897236e-06
1.6853918658772669627e-06
7.4223621760121137204e-06
3.0205635632701404038e-06
5.9814670405025549259e-06
4.2193316305872464141e-06
4.5704066444410757481e-06
5.1765308009232407485e-06
3.237739042938997325e-06
5.827548680291265921e-06
1.9811317991286213379e-06
6.1332420103247606104e-06
7.7570200747661508198e-07
6.0714226368411566164e-06
-4.143789980194660351e-07
5.6347000147077179135e-06
-1.6307445594414399791e-06
4.8347096936945263231e-06
-2.9168401659308075511e-06
3.7136950499806124269e-06
-4.3111828385109363224e-06
2.3643022860596535619e-06
-5.8315590511828007216e-06
9.5537802468402389308e-07
-7.438254534412765965e-06
-2.4813194816258697961e-07
-8.9569049514279502883e-06
-8.9975740805558920969e-07
-9.9436730196565757244e-06
-7.087524615803677293e-07
-9.4341340329872539725e-06
-5.3877750990802401627e-06
-6.8892822102386247413e-07
5.7715520427267706053e-06
-1.6460854329110579355e-08
8.2808879596419948969e-06
1.7979838265841088042e-06
7.713599431545171037e-06
4.0762450699624546812e-06
6.4543677986947845562e-06
6.3684754823796891794e-06
5.1301318770196398678e-06
8.4293534216413416307e-06
3.9205889831584270837e-06
1.0135152125649310727e-05
2.8646076882677289074e-06
1.1428681044048865124e-05
1.9442098946506251208e-06
1.2284173325681414885e-05
1.1256394373495377632e-06
1.2687109385794007515e-05
3.7276605837557638363e-07
1.2624200574081772503e-05
-3.5146993658022560518e-07
1.2080419575718670988e-05
-1.0869632809861067842e-06
1.1041442047771017271e-05
-1.8778624381330250003e-06
9.5044027182896064073e-06
-2.7741434396103812249e-06
7.5009572807416814125e-06
-3.828113651961572449e-06
5.1392594108732460827e-06
-5.0765567374227938481e-06
2.6687436234284008035e-06
-6.4863892045320506902e-06
5.6463310622975269577e-07
-7.8395624952796304382e-06
-4.4586283665036641647e-07
-8.423638069530778842e-06
-5.8336379410955798593e-06
1.8387676309152480832e-07
5.5876750092105378391e-06
3.0471839126689268025e-06
5.4175807083032737117e-06
6.8795775423604034292e-06
3.8812058857151171602e-06
1.0566213401572542986e-05
2.7677321621346822384e-06
1.373995503067740304e-05
1.956390486575037142e-06
1.6314311594615710092e-05
1.3462325607804251091e-06
1.8300477865910363078e-05
8.7844141116230560084e-07
1.9736587031393261433e-05
5.0810060774871352697e-07
2.0657866498930975869e-05
2.0435981919751152985e-07
2.1084799969474337088e-05
-5.4167499824016919509e-08
2.1017970670380609906e-05
-2.8464060663618623804e-07
2.0437534990020702827e-05
-5.0652746075966681362e-07
1.930125426716303646e-05
-7.415815293724726154e-07
1.7547920392144165447e-05
-1.0208094052124605916e-06
1.5108830129593144566e-05
-1.3890233075652838603e-06
1.1941755959166843224e-05
-1.909482563860919261e-06
8.1146228731975073885e-06
-2.6592561556983680565e-06
3.9936368451429816057e-06
-3.7185765010726991993e-06
6.6741858873557806579e-07
-5.0974198292977459862e-06
-5.1662193327302948794e-06
4.1259293722964352662e-06
1.4617455317024592575e-06
1.1133583657504605391e-05
-1.5900737475056651006e-06
1.7009016706155267437e-05
-1.9942272970720318136e-06
2.1485467262211143703e-05
-1.7087184257944521807e-06
2.4826827978473190399e-05
-1.384970149487528346e-06
2.7283685593749879028e-05
-1.1106249115735220402e-06
2.9053905993532205007e-05
-8.9177885636706208645e-07
3.0273802476175407637e-05
-7.1179580870280054258e-07
3.1028370410921155226e-05
-5.5020812751602325458e-07
3.1363235181743265778e-05
-3.8903232766796468387e-07
3.129141324351622489e-05
-2.1281871846612988477e-07
3.0792642002392877027e-05
-7.7562182833780919999e-09
2.9811624198245530344e-05
2.3943634990980721693e-07
2.8247804174467921421e-05
5.4301073455180099546e-07
2.5941127219129871606e-05
9.1765376198622015335e-07
2.265816740157564272e-05
1.3734773284889353522e-06
1.8106737522195149779e-05
1.8921737461148516508e-06
1.2023291759759719951e-05
2.3648692473487411937e-06
4.6827297223992296051e-06
2.2431421831421494781e-06
-4.8348958938509859445e-07
2.143481495611035547e-05
3.1374939383450510891e-05
3.5983776773733663977e-05
3.8734329086340492983e-05
4.0500394170083226094e-05
4.1672640024573991981e-05
4.2462580268514764608e-05
4.2981218668950480855e-05
4.3287722654178651944e-05
4.3411856862077366926e-05
4.3362660191435905188e-05
4.3130319910381031653e-05
4.268278194291040095e-05
4.1955636496002409483e-05
4.082757920548788004e-05
3.906468948291052769e-05
3.62036228954971167e-05
3.1217026351918812058e-05
2.0812014964900751385e-05
)
;

boundaryField
{
    movingWall
    {
        type            calculated;
        value           nonuniform List<scalar> 
20
(
-1.9973069363350790407e-05
-1.1530198202825161065e-05
-6.6030648164461455888e-06
-4.4592709150280658781e-06
-3.1510353832152917523e-06
-2.2828708385019996637e-06
-1.6817190839513329935e-06
-1.2304341270341622441e-06
-8.5671200307610878198e-07
-5.1316643196300955124e-07
-1.6362196329705469855e-07
2.2458414493220090649e-07
6.8697440706740567937e-07
1.2701562960601499239e-06
2.0457111868524995722e-06
3.1363671817687357734e-06
4.7532404323164436708e-06
7.3514658387411307481e-06
1.2648153567699438408e-05
2.0328525381887022126e-05
)
;
    }
    fixedWalls
    {
        type            calculated;
        value           uniform 0;
    }
    frontAndBack
    {
        type            empty;
    }
}


// ************************************************************************* //
