/*--------------------------------*- C++ -*----------------------------------*\
| =========                 |                                                 |
| \\      /  F ield         | OpenFOAM: The Open Source CFD Toolbox           |
|  \\    /   O peration     | Version:  2412                                  |
|   \\  /    A nd           | Website:  www.openfoam.com                      |
|    \\/     M anipulation  |                                                 |
\*---------------------------------------------------------------------------*/
FoamFile
{
    version     2.0;
    format      ascii;
    arch        "LSB;label=32;scalar=64";
    class       volVectorField;
    location    "0.6";
    object      U;
}
// * * * * * * * * * * * * * * * * * * * * * * * * * * * * * * * * * * * * * //

dimensions      [0 1 -1 0 0 0 0];

internalField   nonuniform List<vector> 
400
(
(0.00019468795612256862507 -0.00019233400745005834365 0)
(4.8677768970262420053e-05 0.00012522206062897712781 0)
(-0.0011183247528170005454 0.00050130346673090612868 0)
(-0.0030889697368976661539 0.00075823138296399065009 0)
(-0.0055239244216878195803 0.00088079598124749512202 0)
(-0.0080963112529515227078 0.00088522357151320219242 0)
(-0.010520920330726291417 0.00079375558613482106399 0)
(-0.012565653076826071091 0.00062874866000110557138 0)
(-0.014053738181269564977 0.00041061324471648448335 0)
(-0.014862203101141467643 0.00015820574796746261857 0)
(-0.014921384928445170781 -0.00010983717130653045612 0)
(-0.014216896377602055226 -0.00037372454142240796662 0)
(-0.01279377869705272848 -0.00061146503005010720624 0)
(-0.010761760891085627584 -0.00079837825125052145139 0)
(-0.0082998854082216924621 -0.00090740298766743684653 0)
(-0.0056575910122078172312 -0.00091081084256655468236 0)
(-0.0031469691368503555952 -0.00078432387639387128424 0)
(-0.0011214970239203372274 -0.00051436357591582901848 0)
(6.5309664449258899958e-05 -0.00012359482876077814003 0)
(0.0002032658632029639412 0.00019952854088096119928 0)
(-0.00010069108490973186268 -6.95870104373348306e-05 0)
(-0.0014718562304973314102 0.0014932294633728290367 0)
(-0.004971358426159577619 0.0031210863248292211591 0)
(-0.010045355101144952392 0.0042558073138650141798 0)
(-0.016014803381865810872 0.0047961160391030328853 0)
(-0.022213949389463090445 0.0047728741472670040136 0)
(-0.028020260876609824618 0.0042654143768870037348 0)
(-0.032902692691905321976 0.0033711411087304038285 0)
(-0.036446181300589554353 0.0021912595844848000576 0)
(-0.03835958269857134284 0.00082750053371371179098 0)
(-0.038480424017524821056 -0.00061586789729231258567 0)
(-0.036780996829592078889 -0.0020287000670663616134 0)
(-0.033376070978158221825 -0.0032926311852197248306 0)
(-0.028530247700329965793 -0.0042814863142718213862 0)
(-0.022661010504329757304 -0.0048661675426083248266 0)
(-0.016330250388139219697 -0.0049266682401826241561 0)
(-0.010210037292731479613 -0.0043747581465331114581 0)
(-0.0050169584957529276062 -0.0031897105509739401979 0)
(-0.0014607493893083708155 -0.0015018455933711524763 0)
(-8.9728619115062756761e-05 8.9709363431378732513e-05 0)
(-0.00047998831512937819872 0.0010597474170912150708 0)
(-0.0032139352672036535299 0.0050059532953675729 0)
(-0.0089955414514060749731 0.0086874401600129085715 0)
(-0.016800729833179029599 0.011225526337222265297 0)
(-0.025661581585330918431 0.012393217589677676255 0)
(-0.03469750159968183062 0.012224355507861335568 0)
(-0.043076914728203241634 0.01087834923459866758 0)
(-0.050081418866950742907 0.008574448477119484685 0)
(-0.055145559824521669934 0.0055561582391422731017 0)
(-0.057871591465740966631 0.0020781796256900343829 0)
(-0.058038231401453158065 -0.0015942077932166196039 0)
(-0.055609460867945832707 -0.0051814819519629719269 0)
(-0.050743912219908149375 -0.0083877892824552064549 0)
(-0.043802643655557541025 -0.010905253699829687425 0)
(-0.035350620598690284113 -0.012429265518667794582 0)
(-0.026142579469575991796 -0.012690167477268560203 0)
(-0.017072829514545476842 -0.011506954034286486638 0)
(-0.0090908622110352638179 -0.0088647909224277322837 0)
(-0.0032130036877816609171 -0.0050504828516425449153 0)
(-0.00046751420985677733791 -0.0010289457569974834374 0)
(-0.00080504235800784988177 0.0031137251102213246018 0)
(-0.0048027766407155647252 0.010454303165982435989 0)
(-0.012741721007704731941 0.016726975664348449346 0)
(-0.023055555799004437412 0.02090795187676767683 0)
(-0.034466573272254656668 0.022710105555264065158 0)
(-0.045912353331836443238 0.022204659239623367878 0)
(-0.056413129913588620779 0.019659823657401161168 0)
(-0.065130610773152977644 0.015447367543471942838 0)
(-0.071409141276236751117 0.0099873338964781531446 0)
(-0.07478858279322943281 0.0037245138018428842336 0)
(-0.075011968237482545829 -0.0028757007305564713517 0)
(-0.072034402399948266327 -0.0093238007643278945219 0)
(-0.066033655287264556022 -0.015104587991213723128 0)
(-0.057420386974001848268 -0.01968598719578547665 0)
(-0.046843509157673650367 -0.022546089723919724573 0)
(-0.035180470028358737378 -0.023226286986454888761 0)
(-0.02348688364090472866 -0.02141638215913910584 0)
(-0.012916194963832876991 -0.017069157735750586924 0)
(-0.0048208343532081913974 -0.010565582300953658274 0)
(-0.00079120861344729692503 -0.0030749386814505710354 0)
(-0.0010813424904253243763 0.0059663527859739415998 0)
(-0.0062317513048894528777 0.017655137388138539972 0)
(-0.016191082007238496998 0.026990646717201471905 0)
(-0.028838789111021494171 0.032958516082074312825 0)
(-0.042570295174980579689 0.035316397289965009709 0)
(-0.05614901740351654208 0.03424151733126640923 0)
(-0.068478888940175799971 0.030156746167359884531 0)
(-0.078645067386940353815 0.023618437614582959982 0)
(-0.085944232818966834198 0.015246925731037301588 0)
(-0.089886284920775785801 0.0056958177177898194898 0)
(-0.090194770733528550899 -0.0043532420075240683965 0)
(-0.086812822697278607675 -0.014184789230233254068 0)
(-0.079914950374741292038 -0.023045814015467208646 0)
(-0.069923023150061561215 -0.030156205729802650767 0)
(-0.057522540122752693903 -0.034744671383645828189 0)
(-0.043668201805737855148 -0.03612043020354920031 0)
(-0.02954730019449789552 -0.033786337969922031199 0)
(-0.016517305987648948223 -0.027585561839416596758 0)
(-0.0062977558712479023151 -0.017888523634195609147 0)
(-0.0010710122147372465231 -0.0059302387473980410285 0)
(-0.0013320916500498794673 0.009536186009140327699 0)
(-0.0075605458202922734556 0.02649628628967990937 0)
(-0.019426304804911889018 0.039358097683598519678 0)
(-0.034257045841361341565 0.047231334053601053968 0)
(-0.050114262193153895353 0.050031428438708530626 0)
(-0.065594434608733001579 0.048130339337134703248 0)
(-0.079511058993459352018 0.042167541020567730903 0)
(-0.090908942196485223453 0.032922697026262444375 0)
(-0.09907356645212976598 0.021237111947389496203 0)
(-0.10351305527803363049 0.0079812409115606573751 0)
(-0.10394531114130148297 -0.0059462538850033590937 0)
(-0.10029778930553041871 -0.019604871337756558242 0)
(-0.092720358148472570292 -0.032000370749017889582 0)
(-0.081610284232558658046 -0.042090392002953037898 0)
(-0.06764632996027246381 -0.04882280300787415761 0)
(-0.051819995676515427652 -0.051220519442981678193 0)
(-0.035425064603037244304 -0.048519760427883786014 0)
(-0.020023621203461853396 -0.040350463777368339446 0)
(-0.0077274271022473453932 -0.026954958933498692625 0)
(-0.0013362046104405094632 -0.0095342244908406398318 0)
(-0.0015784470453881344065 0.013784878559040734253 0)
(-0.0088516145601434895879 0.036899777217869973722 0)
(-0.022536486291687918282 0.053715682708583109561 0)
(-0.039399179249229275557 0.063568827003799788233 0)
(-0.057166053014114544262 0.066655240048528519026 0)
(-0.074284146911336265684 0.063646787093241299904 0)
(-0.089510822022515257324 0.055474286271662731629 0)
(-0.10189280964570164578 0.043184137133044600554 0)
(-0.11074512317969482933 0.027855358437407141958 0)
(-0.11560533286885553428 0.010572298368097251403 0)
(-0.11620170435673490839 -0.007564166882099303095 0)
(-0.11244352645109885469 -0.025406761286908351172 0)
(-0.1044343370002762672 -0.04173260942553148195 0)
(-0.092508211222337460855 -0.055234116778492305111 0)
(-0.077287643685050103071 -0.064549711297626100048 0)
(-0.059750412925765071515 -0.068353572753070579449 0)
(-0.041258304072129568796 -0.065516056340953407466 0)
(-0.023564905881926716258 -0.055324565633018983613 0)
(-0.0091953350276108500316 -0.03775635754489942153 0)
(-0.0016142588262767700209 -0.013883253219111421628 0)
(-0.001838357656100905041 0.01871012886665147576 0)
(-0.010156881248172032819 0.048819629431075935166 0)
(-0.025583534176153249762 0.069944923687415602731 0)
(-0.044289578278493363372 0.081769379650136794768 0)
(-0.063669500596823483396 0.084916117430873003236 0)
(-0.082056153025341915797 0.080482445492469301129 0)
(-0.098204214088014010753 0.069776993334070711028 0)
(-0.1112208844207002445 0.054158155359829845965 0)
(-0.12050384675182140848 0.03495248579125667665 0)
(-0.12566026264518581623 0.013441695484930196725 0)
(-0.12645082113377820177 -0.0091039225894228824332 0)
(-0.12276738370730980177 -0.031368785905622705024 0)
(-0.11464496139628704841 -0.051933928853145489013 0)
(-0.10230985704516556978 -0.069240049401529280004 0)
(-0.086265409165090845001 -0.081596520366549421532 0)
(-0.067403758603995014842 -0.087263327625088552009 0)
(-0.047088978799365070749 -0.08462749169051775322 0)
(-0.027227393498195768401 -0.072471979666668642772 0)
(-0.010771548167957729902 -0.050332534492926850334 0)
(-0.0019290942089388225279 -0.019022390675479294159 0)
(-0.0021287082587867836581 0.024338576491496451831 0)
(-0.011517084946933429587 0.062228882204549106072 0)
(-0.028588212236133576233 0.087897288491203137695 0)
(-0.048858155478444340036 0.10154570985358112034 0)
(-0.069402065690426381628 0.10441539569731494996 0)
(-0.088501395906528307345 0.098183095825025462622 0)
(-0.10499083079674965957 0.084633178364408798156 0)
(-0.11812081028361182122 0.065479120051659359114 0)
(-0.12744266354511030181 0.042293260132530111073 0)
(-0.13268578401085218132 0.016520557371377329881 0)
(-0.13367401025709468865 -0.010453560960303543911 0)
(-0.13028793633233584637 -0.037207808965966128467 0)
(-0.12247296066617431587 -0.062185164818024690758 0)
(-0.11029711248822006431 -0.083612529683843223038 0)
(-0.094065233035130063621 -0.099469241732500934816 0)
(-0.074482621325698245007 -0.10754136825915915077 0)
(-0.052809675769914861398 -0.10559959811890201609 0)
(-0.031025458341894192327 -0.091718033366685214336 0)
(-0.012504504636882364174 -0.064747373343821565395 0)
(-0.0023023611664491133375 -0.025034943899157835467 0)
(-0.0024703339513429097354 0.030722404775478003025 0)
(-0.012968881500036300372 0.077096778896119835811 0)
(-0.03152396153932967432 0.10734457419287460334 0)
(-0.052911393950396755359 0.12245243475991590687 0)
(-0.073923851097101436758 0.12454291817565783795 0)
(-0.092897939064092077688 0.11606347117051116213 0)
(-0.10887153921440846649 0.09938070326403385113 0)
(-0.12135084568021731188 0.076596789244476978786 0)
(-0.13013114744183337801 0.049509450428473038286 0)
(-0.13512907172265939404 0.019670111418652064944 0)
(-0.13627130232712036939 -0.011499893824016678423 0)
(-0.13344075470047842003 -0.042563807135447336016 0)
(-0.12647713818215544634 -0.071915742886324782179 0)
(-0.11523841607099347129 -0.097640707556942263334 0)
(-0.099737804439718122373 -0.11741940389721552962 0)
(-0.080360062803042128787 -0.12852497149368805052 0)
(-0.058102984178983754782 -0.12797229066072030035 0)
(-0.034874423598516196554 -0.11287211391265730698 0)
(-0.014419227877063482343 -0.081045901092397842902 0)
(-0.0027568008878384939186 -0.032032255150238095331 0)
(-0.002896199759589438566 0.037944546724303404583 0)
(-0.014555326917239623172 0.093360437681877114779 0)
(-0.034303976397695341849 0.12790676152680846567 0)
(-0.056082594001472814427 0.14378551349960391748 0)
(-0.076495421355711523681 0.14436952813833489606 0)
(-0.094110432795072834766 0.13310900985296417187 0)
(-0.1083441959729558729 0.11305685124451417267 0)
(-0.11910150751323897445 0.08671426475876926887 0)
(-0.12652598204003684401 0.056054962589914152093 0)
(-0.13079257266213806243 0.022652168187746887784 0)
(-0.13197574614369450563 -0.0121424093132033728 0)
(-0.12998270020077370979 -0.046994735266800514994 0)
(-0.1245427470980348672 -0.080373322597627319674 0)
(-0.11526145141812264849 -0.1103362613453946206 0)
(-0.10176503580445557529 -0.13434687938241540728 0)
(-0.083957157635024357023 -0.14917135335631021009 0)
(-0.062352062480348927065 -0.15094527126954704332 0)
(-0.038547971805768320441 -0.13551540084214158677 0)
(-0.016513643925119846773 -0.099193467487617828504 0)
(-0.0033212972170001816771 -0.040146348952861815595 0)
(-0.0034640651154841852616 0.046138187055410409543 0)
(-0.01633393270607948547 0.11088404710503126094 0)
(-0.036738290863260421315 0.14894179701248130843 0)
(-0.057725885441815276422 0.16444090516776058153 0)
(-0.075928228210640352769 0.16251294044351410895 0)
(-0.090426778795339002315 0.1478700174945358492 0)
(-0.101251490578882275 0.12432488857850432229 0)
(-0.10886828305129875316 0.094740538752989697513 0)
(-0.11387037142176903437 0.06117438747180466152 0)
(-0.11675232658858451795 0.025105413644219934377 0)
(-0.11777653694331154111 -0.012312366292168655524 0)
(-0.11690325674982367243 -0.049987198427318260685 0)
(-0.11376645892818595951 -0.086615152265529862796 0)
(-0.10770472047103464563 -0.12038978492700515288 0)
(-0.097884485863705683606 -0.14870693212539398687 0)
(-0.083563252815311808708 -0.16791242319166801988 0)
(-0.064493095795079696808 -0.17320044873683154707 0)
(-0.041596589756684725081 -0.15883843737614417035 0)
(-0.018744628882210224302 -0.11898627014710318195 0)
(-0.004037738573757413893 -0.04952765384763843648 0)
(-0.0042736462256788660882 0.055525070425467261404 0)
(-0.018365351659585617272 0.12937899168200200917 0)
(-0.038412170107790306883 0.16936121868360518028 0)
(-0.056689060456686687917 0.18271102395526919726 0)
(-0.070308309713912178762 0.17697694448616577145 0)
(-0.079290923632963805634 0.15836465155351270306 0)
(-0.084561097860053072162 0.13143258650655254005 0)
(-0.087294281296062023467 0.099282814339516953228 0)
(-0.088595454111526625307 0.063905850695126192873 0)
(-0.08930130043463176126 0.026541004664378670119 0)
(-0.089879193269182616755 -0.01199299984922411362 0)
(-0.090372258429384302869 -0.050989500947112006979 0)
(-0.090362758167943216248 -0.089538214304517207975 0)
(-0.088961104535318302755 -0.1261704597366620495 0)
(-0.084865996946762042863 -0.15844626731160127431 0)
(-0.076569834052866950214 -0.18250343139992572516 0)
(-0.062763312290598727294 -0.1926722777267384501 0)
(-0.043182817847088272867 -0.18139699615004675759 0)
(-0.020982940004085872537 -0.13990124179138305194 0)
(-0.0049670457936902643464 -0.060344953191913332236 0)
(-0.0054759604412940258295 0.066437328171937315435 0)
(-0.020623602538748769114 0.14817808002638088727 0)
(-0.038371262408413681078 0.1872726151401485073 0)
(-0.050840833812898604538 0.19597257766573225601 0)
(-0.056498519892294762901 0.18496688740370897941 0)
(-0.056879046444238544333 0.16202234086255024037 0)
(-0.054062356734896767352 0.13224366175233884246 0)
(-0.049993201872170253686 0.098716767877965225231 0)
(-0.046250401155002264508 0.0631477971853643405 0)
(-0.043954068036954341281 0.026376267665051793265 0)
(-0.043744793559849809439 -0.011234325504263958581 0)
(-0.045768382463220180778 -0.049474654454601724174 0)
(-0.049633145829616781564 -0.087971299410415579323 0)
(-0.054342115125803718001 -0.12580597386477440636 0)
(-0.058242372734532352196 -0.16100936193750042813 0)
(-0.059079006186918796295 -0.18989010209177634159 0)
(-0.054263269167431280038 -0.20624479415233251678 0)
(-0.041736914003888021807 -0.20070222377003538172 0)
(-0.022874494937700440289 -0.16077254714517283385 0)
(-0.0061774797813366312885 -0.072736124540933561056 0)
(-0.0072154928127189316492 0.079240001734431200764 0)
(-0.022642652402109674642 0.16565962017801527661 0)
(-0.034338525548620782435 0.19930268559946873186 0)
(-0.036113296687680269959 0.20024061665890965922 0)
(-0.029277668625364516863 0.18273791448383269742 0)
(-0.017467858993145967544 0.15575239951125233184 0)
(-0.0039875962803888409872 0.12442148327156953014 0)
(0.0086086914126508214118 0.091395432114276087265 0)
(0.018488212547836325311 0.057830425310544421313 0)
(0.024433241356964313651 0.024029796860348957843 0)
(0.025736149063798605119 -0.010155526921621414391 0)
(0.022153507901699287519 -0.045045490612644442652 0)
(0.013943130277435138858 -0.080866890950794592663 0)
(0.0019884608727844515358 -0.11741264096446868415 0)
(-0.012008484003962167225 -0.15351404977361524096 0)
(-0.025330815698703858241 -0.1861965326532254994 0)
(-0.034180823509251709313 -0.20942482655687763571 0)
(-0.034213939010950766839 -0.21257986151625166138 0)
(-0.023433539363131028477 -0.17913655993917207421 0)
(-0.007652956815866125348 -0.086620774658149546354 0)
(-0.0092934230616438621986 0.094508555176822647836 0)
(-0.022410029775813022912 0.1785622977058451688 0)
(-0.020891558957542140373 0.19993003992661517731 0)
(-0.0046832762585977787129 0.19002125439678277385 0)
(0.020016844799086858098 0.1659093672134870634 0)
(0.047378868285193151411 0.13649594523776620303 0)
(0.073344741187890735712 0.1060255359008500653 0)
(0.095299680283806975645 0.076171117478678301849 0)
(0.11162693592773904883 0.047301477905316142991 0)
(0.12134326269558882994 0.019140624852365527298 0)
(0.12386036835297237202 -0.0089113296469587998522 0)
(0.11887909723202023937 -0.037602185276094768351 0)
(0.10640755199682382093 -0.067675909232984166053 0)
(0.086912964986961299685 -0.099652286871652090428 0)
(0.061634806488208147834 -0.13339835842567054902 0)
(0.033069268371953383645 -0.16726895391605492436 0)
(0.0055322150826694789505 -0.19651054175178983563 0)
(-0.014539031045626708144 -0.21078965445281516722 0)
(-0.019945030359048473989 -0.19063984044866144618 0)
(-0.0089166630948042426008 -0.10175886615870960439 0)
(-0.009771070320267066095 0.11383113913774001169 0)
(-0.013344409766628390762 0.18130716187836032338 0)
(0.014227638214817792811 0.18142091482760885901 0)
(0.057905912909462217697 0.15923042401235329435 0)
(0.10512181435295431253 0.1309073313588723364 0)
(0.14942947533678546668 0.10272137551281761148 0)
(0.18749432982955227533 0.076798964331431435193 0)
(0.21767757748479085733 0.05338630016221596053 0)
(0.23926260656053632836 0.032016227284642768958 0)
(0.25191520582343523982 0.011973106590899586926 0)
(0.25538779534673156091 -0.0075698062970955964923 0)
(0.24940028816987580562 -0.0275261755376083328 0)
(0.23363281028775781389 -0.048884619960117781101 0)
(0.20784049508778504323 -0.072663856418600014653 0)
(0.17217534109827178912 -0.099716007108625853705 0)
(0.12783100971884744923 -0.13012688659187318652 0)
(0.077985041203434635193 -0.16173854016703057002 0)
(0.02922011483384621966 -0.18730919895329509184 0)
(-0.0052700033132983374606 -0.18853227837782721155 0)
(-0.0076556552819471851423 -0.11826331527102403041 0)
(0.0011130815981197795389 0.12888577917245386262 0)
(0.024397443760945325408 0.15478088727599018104 0)
(0.097023722471679646473 0.12867550470423519404 0)
(0.17628051830953109236 0.099900800599796835133 0)
(0.24581029848188887255 0.075142878451298508735 0)
(0.30330056706196373284 0.054895315887540874211 0)
(0.34878379809227672004 0.038514196201539500908 0)
(0.38285904603393966505 0.025033607194803901563 0)
(0.40631612101473885135 0.013576138871685232423 0)
(0.41975377358412030437 0.0034106263847086884522 0)
(0.42340152988127172096 -0.0061199092032567141766 0)
(0.41707424595374376075 -0.015682730172768416521 0)
(0.40014784642869716258 -0.026055527178720963577 0)
(0.37155853384350406854 -0.038209110064577410382 0)
(0.32994080576039147568 -0.053375349935506771759 0)
(0.27406235519816180002 -0.07296100672790602204 0)
(0.20340717158774174189 -0.097966339167211105576 0)
(0.11986298161714184496 -0.1274537405682549529 0)
(0.039292508026910241692 -0.15281245255189684906 0)
(0.0056962269972555875513 -0.12542850921374015805 0)
(0.069997442479892604816 0.060664218457796501016 0)
(0.15372346068859976675 0.031271769106531274729 0)
(0.2826873227687398682 0.0083369587012702868478 0)
(0.38995198603712133423 -0.0010218469677755533543 0)
(0.46761002821225594595 -0.0048079361439752384827 0)
(0.52447200913701674807 -0.0064318577190215549949 0)
(0.56606260621359860696 -0.0071206289902003803982 0)
(0.59554427283332667109 -0.0073002429836773515687 0)
(0.61502851490172405491 -0.0070730927206821229275 0)
(0.62580385880415367872 -0.0064234715327080096903 0)
(0.62844971025850149271 -0.0053048143127551522155 0)
(0.62290085481608148399 -0.003678013703881811286 0)
(0.60842539362143654991 -0.0015542059266795910447 0)
(0.58350167664188223871 0.00096176131686577818677 0)
(0.54561759836577428118 0.0035831859316905910126 0)
(0.49103954881201189453 0.0056300108912754184484 0)
(0.41379197190482319701 0.0055279847474783861544 0)
(0.30451370798349347568 -0.00030085908366787135135 0)
(0.16898566826850081046 -0.018889961686308971711 0)
(0.072228943830952851979 -0.045844796786974582881 0)
(0.39775364605898599901 -0.21080951990149016106 0)
(0.55408080487325783725 -0.18974771288630132293 0)
(0.67675002229315184277 -0.13632838626889248745 0)
(0.75171700447627354258 -0.098457217282068715258 0)
(0.79545129136124592684 -0.072250153021082452742 0)
(0.82360235043723073467 -0.053765437153092600353 0)
(0.84265456322556431257 -0.040387436357583392232 0)
(0.85544915013642797152 -0.030113557024038617449 0)
(0.86353822610067287879 -0.021508333932501573493 0)
(0.86777149825125388105 -0.01354096414212238586 0)
(0.86852328604992312666 -0.0054006684589176321559 0)
(0.86578832308042175114 0.0036400929482784875717 0)
(0.85916940559267274136 0.014353083931326679826 0)
(0.8477508987864669221 0.027694825213208120601 0)
(0.82980574650880101206 0.045027106953524458077 0)
(0.80215124114577662784 0.06842866044271611603 0)
(0.75797570300076699823 0.10102211555913120922 0)
(0.68093052297296696729 0.14774033717116979991 0)
(0.54924523365829658328 0.21282943094398382167 0)
(0.36766978576892506148 0.23264478325318110885 0)
)
;

boundaryField
{
    movingWall
    {
        type            fixedValue;
        value           uniform (1 0 0);
    }
    fixedWalls
    {
        type            fixedValue;
        value           uniform (0 0 0);
    }
    frontAndBack
    {
        type            empty;
    }
}


// ************************************************************************* //
