/*--------------------------------*- C++ -*----------------------------------*\
| =========                 |                                                 |
| \\      /  F ield         | OpenFOAM: The Open Source CFD Toolbox           |
|  \\    /   O peration     | Version:  2412                                  |
|   \\  /    A nd           | Website:  www.openfoam.com                      |
|    \\/     M anipulation  |                                                 |
\*---------------------------------------------------------------------------*/
FoamFile
{
    version     2.0;
    format      ascii;
    arch        "LSB;label=32;scalar=64";
    class       volScalarField;
    location    "0.4";
    object      p;
}
// * * * * * * * * * * * * * * * * * * * * * * * * * * * * * * * * * * * * * //

dimensions      [0 2 -2 0 0 0 0];

internalField   nonuniform List<scalar> 
400
(
-0.039613920550854699043
-0.044494328796944190851
-0.050168305039622274055
-0.054171974967575309279
-0.055137585497346749963
-0.052495009102566637937
-0.046251391605282993202
-0.036813043712467928559
-0.024855868094783267752
-0.011240844868565750408
0.0030464384671976471597
0.016950033514355367092
0.029404687558178453644
0.039413727121426538058
0.046151157088158901998
0.049094805567261229351
0.048196488693385414193
0.044077499485752444364
0.038231512648154886147
0.033255917918166309766
-0.034775568318819970182
-0.039791027389197750064
-0.044180118000489362884
-0.046792258664457901662
-0.047005083505488813589
-0.044420788617323236913
-0.039019786046693726023
-0.031095833583192927785
-0.021164026800024073743
-0.0098999087931576149058
0.0019095617553176126493
0.013415733463773726886
0.023765221817548278643
0.032169240256845810233
0.03798722218375049503
0.040828230058355452492
0.040676634866233372934
0.037970860405513673363
0.033435904301368661595
0.028331723686533805129
-0.028779556339174283686
-0.035661801416585398039
-0.040378635797748377301
-0.042708329289752537672
-0.042734435608506114723
-0.040263864797669343676
-0.035332093943657133517
-0.028216309705767390892
-0.01936158028494434219
-0.0093424281442517822377
0.0011694162833307108346
0.011443784204286747488
0.020739852628712238114
0.028364532685402499973
0.033739653486980901442
0.03648222228973788811
0.036514372338852019162
0.034066286461623428161
0.029158929575642106996
0.022137480529282077546
-0.023769201644862906347
-0.033132286186370506209
-0.038941204417805526383
-0.041575829475204259533
-0.04170000690094705087
-0.039307853133607260909
-0.034521968975852787564
-0.02765524251854227164
-0.019140664550530300109
-0.0095108270143275490394
0.00061690760716402238181
0.010565738674697958827
0.019635758201000740042
0.027151097895932840842
0.032514098450147951858
0.035274498334701011315
0.035244561493181579548
0.032460556291186958011
0.026374958672507879676
0.016770074258929443256
-0.021132189704033209343
-0.032993648865591591879
-0.040045317761224406838
-0.043104633198654443427
-0.043323073002073018978
-0.040858024452566005236
-0.035923324238196087388
-0.02888551933221623555
-0.020190713617497271087
-0.010358360181184201806
1.7206288124325062048e-05
0.010278219507380616585
0.019727531241351205921
0.027664579442217170774
0.033428841862614092073
0.036464124915036394414
0.036449938101122764111
0.033240295404119622746
0.025805806921623902772
0.01353931878689479916
-0.021879514811585714512
-0.036137911300225637745
-0.044391409619078107951
-0.047804406157516965425
-0.047958433404324110616
-0.045159004881814672483
-0.039712320056538658042
-0.032048332810078787591
-0.022641354092026489547
-0.012015834784918820455
-0.00076343843769266506172
0.010454131309104750663
0.020915969671110097583
0.029866150054938055136
0.03654739458834781185
0.040264358182219357751
0.040538842630977338366
0.037038026768723850135
0.028289028440922878854
0.013382820870407270697
-0.026876730363585482619
-0.043421760535948240867
-0.052731287409222685203
-0.056285403585318874442
-0.056081820073938151716
-0.052575901298136634709
-0.046172128887850626133
-0.037371400159929818452
-0.026684582199860730489
-0.014649893187967555352
-0.0018659129159981238753
0.010990081580819448595
0.02315787567943199815
0.03380466903684882507
0.042047710632164683742
0.047017665416019496782
0.048042581268158975061
0.044572356572593938018
0.034670443116011355478
0.017141022750180513745
-0.037015693990660500368
-0.055737755035088362709
-0.06585633860838384368
-0.069191346943096407318
-0.068191499001975894312
-0.063485428253671205567
-0.055589806319341274199
-0.045083224599232106511
-0.032514432326756534386
-0.018433250865984556616
-0.0034416265282600513008
0.011770032718596950758
0.026400337034546219467
0.039529489208416881962
0.050126715364213085546
0.057111064385020740564
0.059565653569267781875
0.056659947377319955231
0.045908375937771514486
0.025773843699455158129
-0.053348215083923046509
-0.074117717679925199104
-0.084668642965882959239
-0.087243727648257177187
-0.084832280939166976319
-0.078285224297870395493
-0.068254788086723805485
-0.055403108832829339736
-0.040310007933571270766
-0.023522054246236403369
-0.0056256189723115123183
0.012695010849771428199
0.03061230004225632545
0.047124238845572360979
0.061038934041507515726
0.071025315703588401406
0.075854164968291629134
0.074313541547686517985
0.063212142727296888323
0.040543119297817231672
-0.07720964810694171121
-0.099825433145001682411
-0.11022398367102503869
-0.1112383493864957662
-0.10655845438768754563
-0.097336707347463094497
-0.084392856153001793995
-0.068474542290638262809
-0.050174239399539057038
-0.030004335077451635416
-0.0084978536507151324758
0.013707097412257939276
0.035793875288273678537
0.056704494969656321635
0.07508996163178345562
0.089336907786050939739
0.097823647944696182077
0.098814207274987173046
0.088171051425734212059
0.063190204899763943724
-0.1103839113781798914
-0.13447004104169388294
-0.14376861965247658692
-0.14201578316815002823
-0.13386009554560041046
-0.12086784656662651061
-0.10406105235132041831
-0.0842630141107743591
-0.062041731985670943439
-0.037822864703621512927
-0.012024843111075378399
0.014826273086656072131
0.041990577058403075195
0.068411638604975497091
0.09261779487010633749
0.1127025769775187175
0.12657055444972836744
0.13177836148094021484
0.12290076375711041223
0.096156436976828504881
-0.15538145996076835331
-0.18016295408113131016
-0.18676291929588029195
-0.18039134572209816754
-0.16704121100863264515
-0.14883048922141053905
-0.12700416605824360605
-0.10242291893145108461
-0.075562002341863027111
-0.046678236915050519418
-0.015985602439050478063
0.016198294136720692293
0.049311956752231433931
0.082401513169045190188
0.11395706239764180623
0.14181587661567060521
0.16335229784667501529
0.17520710465689673385
0.17021825432499848585
0.14290556037740984041
-0.21598677320152354087
-0.2397630361981198388
-0.24087361224055395259
-0.22701302156572217283
-0.20602463411783106251
-0.18069939569744958296
-0.15247217898310688744
-0.12214270754363446003
-0.089973960215712744937
-0.05593192912100528047
-0.019903310307803543516
0.018132126059308438515
0.057933595114306055129
0.098806569288512904881
0.13936287851126780146
0.17730962973274072558
0.20950969518830733773
0.23150443431944339734
0.23388261662100490179
0.2084836567918584016
-0.29846164241043571241
-0.31737222629761480119
-0.30798355451959524842
-0.28217010572314366046
-0.25011006241270977712
-0.21525129522391917014
-0.17904795758684549645
-0.14202401703990219506
-0.10402909794825980494
-0.064564666806966736212
-0.023032803933779533861
0.021084378572135246271
0.068049104753779954269
0.11764784657347329699
0.16887994103909173549
0.21960081567186215401
0.26634855200343326986
0.30352240471866681615
0.31905378848881449372
0.30064544392481135082
-0.41359307478179679896
-0.41883891473996304189
-0.38993761620390726685
-0.34536833698143448723
-0.29758609062362517683
-0.25029017055454583218
-0.20449728261414806818
-0.1600351382203108741
-0.11602041741295693322
-0.071258063574558716535
-0.024481342747164482748
0.025501710419363117499
0.079665768951702867207
0.13856208639091976975
0.20197571059603502963
0.26842725811121315171
0.33463903396344385488
0.39419539733391389946
0.43253962043402927051
0.43147817968235907538
-0.57789465684856955452
-0.54958838390205244639
-0.48585536020345226893
-0.41327291917958014489
-0.34429825823273330077
-0.28173227745579992876
-0.22525559172882711478
-0.17328513599403630452
-0.12375926066931423886
-0.0745239982825953301
-0.023471273349363153821
0.031415811337842595996
0.09201641500051301048
0.15995226888917529751
0.2363093701005165026
0.32108822588546470644
0.41217676885304693757
0.50338542453394485854
0.57984878816609375374
0.61734092954883468263
-0.81921051027819713486
-0.71114559302419466658
-0.58783901627529244749
-0.477040675843252715
-0.38217902332053915737
-0.3029008692770999156
-0.23620230716806714377
-0.17807770375136497409
-0.12477999100819872624
-0.072996108606125695295
-0.019700026316509702817
0.038010341436803422865
0.10301415579075684503
0.17825053333121407273
0.26666968244188810067
0.37083612069864207994
0.49126092517346731103
0.62401275054332028258
0.76180110896792718744
0.88262437261378845488
-1.2384846213853770713
-0.93129137767906844392
-0.69955605878872306747
-0.53581596733413905387
-0.40998363437144347277
-0.31313409139593317843
-0.23746915177346589187
-0.17517856502787440554
-0.12024166912670707086
-0.068045277522744654353
-0.014673034135952037552
0.043662267151231205775
0.11084959849372218177
0.19135805363786284605
0.29068862550244051191
0.41552146323649552517
0.57145770815437380019
0.76170894656545706791
1.0073220055125338135
1.3177409685815528739
-2.0740311311521368864
-1.2878084176544677408
-0.84586126939974359829
-0.60491019862325723366
-0.44123812835789688602
-0.32513020067911307942
-0.24072715688457146932
-0.17502290562537650698
-0.11922721719377121774
-0.067270928568346197163
-0.014314886489637232425
0.044054367811305651659
0.1127325365742866542
0.19779059600101864258
0.3078354481605244386
0.45555452297143239626
0.65675680883359754958
0.93537009490550393487
1.3869137685305517049
2.1305343016002664669
-2.6363916558454008054
-1.281616870776631556
-0.73069800491889602689
-0.49250940073683663334
-0.34760800344324205291
-0.2516380833113787685
-0.18527280356801001382
-0.13549962864208967006
-0.094311686779890879784
-0.05647407216766273802
-0.018000011216280222687
0.024700755013350682993
0.075521739397820392137
0.13955768954200381549
0.22461146965864883795
0.34401818559927838104
0.52059821150470630968
0.80325748228748983237
1.3752995367744649258
2.6013833353302198148
)
;

boundaryField
{
    movingWall
    {
        type            fixedValue;
        value           uniform 0;
    }
    fixedWalls
    {
        type            zeroGradient;
    }
    frontAndBack
    {
        type            empty;
    }
}


// ************************************************************************* //
