/*--------------------------------*- C++ -*----------------------------------*\
| =========                 |                                                 |
| \\      /  F ield         | OpenFOAM: The Open Source CFD Toolbox           |
|  \\    /   O peration     | Version:  2412                                  |
|   \\  /    A nd           | Website:  www.openfoam.com                      |
|    \\/     M anipulation  |                                                 |
\*---------------------------------------------------------------------------*/
FoamFile
{
    version     2.0;
    format      ascii;
    arch        "LSB;label=32;scalar=64";
    class       surfaceScalarField;
    location    "0.4";
    object      phi;
}
// * * * * * * * * * * * * * * * * * * * * * * * * * * * * * * * * * * * * * //

dimensions      [0 3 -1 0 0 0 0];

oriented        oriented;

internalField   nonuniform List<scalar> 
760
(
1.0076716863960085404e-08
-1.0076778042133654049e-08
-2.3699990743749406388e-08
3.37760112634954834e-08
-1.0347151213548354689e-07
7.9771679572800109433e-08
-2.1459984141332736362e-07
1.1112909452583046896e-07
-3.4049721512972316929e-07
1.2589814633037406427e-07
-4.6591341220859055536e-07
1.2541634283802574383e-07
-5.779773365051131319e-07
1.1206334310099313043e-07
-6.6652428111143669368e-07
8.8546061903488196614e-08
-7.240909527028581787e-07
5.7566053760705302536e-08
-7.4586925107570757058e-07
2.1778287365812102992e-08
-7.2974934535209130654e-07
-1.6119280526481656616e-08
-6.7647647504506205143e-07
-5.3271828821900646177e-08
-5.8988952840182287975e-07
-8.6585924815742842936e-08
-4.7716879579014266784e-07
-1.1272029038371131103e-07
-3.4897955218443730322e-07
-1.2818973548568911876e-07
-2.1932771351612592902e-07
-1.2965300365303197596e-07
-1.048444656009961887e-07
-1.1448421715001610045e-07
-2.3202829464462100363e-08
-8.1641549873717558165e-08
1.0718535115554083147e-08
-3.3920151915850973336e-08
1.0719873281301453561e-08
-3.2181637357907931975e-08
2.2105687270920989137e-08
-1.5927723295490968562e-07
1.608710040173666897e-07
-3.7442710811752507004e-07
2.9492095059935352703e-07
-6.5084892769068517736e-07
3.8755091302676288211e-07
-9.5563717256794910202e-07
4.3068727609185285416e-07
-1.2562452179882769122e-06
4.2602575271725802988e-07
-1.5237933689368438538e-06
3.796126601523837783e-07
-1.7346794269483304661e-06
2.994326326732244802e-07
-1.8712680076362469688e-06
1.9415444892247892945e-07
-1.9222182427072516448e-06
7.2727833734136178271e-08
-1.8827643524309217288e-06
-5.5574078312687198975e-08
-1.7550630779389160493e-06
-1.8097383085301758759e-07
-1.5485754479627430097e-06
-2.9307365986369424567e-07
-1.2803245662064901275e-06
-3.8097053669635593865e-07
-9.7475547135569593216e-07
-4.3375799030438859739e-07
-6.6278903062635920848e-07
-4.416193202453027812e-07
-3.7952473464342038142e-07
-3.9774957962065908375e-07
-1.5997079384211604054e-07
-3.0119706864473620302e-07
-3.1611730572005139819e-08
-1.6228009893399486137e-07
-2.0890729341235303922e-08
-8.0494070695154389585e-08
1.0260061868242859524e-07
-3.0487446052838363438e-07
3.8525126795715117664e-07
-6.4500384647729834791e-07
6.3504964058320751896e-07
-1.0612006010537235506e-06
8.0374686668454195258e-07
-1.5089524777706889755e-06
8.7843894273524127091e-07
-1.9446886170172730046e-06
8.617625450121193765e-07
-2.3295262082704522048e-06
7.6445143186417450758e-07
-2.6314266218068279168e-06
6.0133415916446203225e-07
-2.8263214733068468061e-06
3.890499323961582337e-07
-2.8987260515382187493e-06
1.4513240785613786278e-07
-2.8421940726698664401e-06
-1.121067078141255007e-07
-2.6597737489307536741e-06
-3.633952463282746579e-07
-2.364442188080966514e-06
-5.8840617437252932941e-07
-1.9793275033332394617e-06
-7.6608530641750001731e-07
-1.5373735840503666824e-06
-8.7571091226836462553e-07
-1.0799716685881093393e-06
-8.9901989434016678926e-07
-6.5402757923958103896e-07
-8.2369318755099006776e-07
-3.0704305151101230856e-07
-6.4818239687601267812e-07
-8.0067620136110476035e-08
-3.8925680942632221545e-07
-1.0095821171631746716e-07
-1.2312759558554689082e-07
2.2572864238837232975e-07
-4.3918377413919628377e-07
7.0130786197060308428e-07
-8.9592410494547538386e-07
1.0917898919260182794e-06
-1.4379717937489805164e-06
1.3457938302990711929e-06
-2.0095632330119153494e-06
1.450029495958876914e-06
-2.5584955728908971557e-06
1.4106945293231064938e-06
-3.0391135672849711354e-06
1.2450698448564511408e-06
-3.4141486522201493056e-06
9.763701544399216258e-07
-3.6557170136190538031e-06
6.3061927983868003441e-07
-3.7458760635025676117e-06
2.3529221138507664737e-07
-3.6770626332236999137e-06
-1.80919901156892703e-07
-3.4525812952646963162e-06
-5.8787711144247994936e-07
-3.0871304101930727313e-06
-9.5385821352791013014e-07
-2.6071734595461272122e-06
-1.2460432811039167511e-06
-2.0507948000698121417e-06
-1.432089540164488061e-06
-1.4665582847389912944e-06
-1.4832551398223530054e-06
-9.108899991341677645e-07
-1.3793598973070339667e-06
-4.4374518988549936509e-07
-1.1153265486200953442e-06
-1.2298993665122703839e-07
-7.100126267551750164e-07
-2.2394881511107527483e-07
-1.6073593480829886142e-07
3.8646425756685659496e-07
-5.6182257022847569221e-07
1.1023949968457819635e-06
-1.1274945876574385546e-06
1.6574625826831943447e-06
-1.785391691582240834e-06
2.0036910381153826932e-06
-2.4682039667997546646e-06
2.1328411183265490003e-06
-3.116126935455431501e-06
2.0586166234985863824e-06
-3.6786254385300884393e-06
1.807567863125800972e-06
-4.1153522036014687378e-06
1.4130970224816164401e-06
-4.3964857687696050342e-06
9.1175342444025726048e-07
-4.5028434248612396804e-06
3.4165077630828934204e-07
-4.4260731175136954773e-06
-2.5768920537912930154e-07
-4.1690970778573734339e-06
-8.4485255032389426555e-07
-3.7468119667478837799e-06
-1.3761436413053260082e-06
-3.1868673290168058754e-06
-1.805989070382416637e-06
-2.5301603917254099563e-06
-2.0887975518171872385e-06
-1.830538633687818437e-06
-2.1828768370934840983e-06
-1.1531754002198443803e-06
-2.056721777118147382e-06
-5.7130102852004589401e-07
-1.6971993068351976216e-06
-1.6159613454870097798e-07
-1.1197168256530638788e-06
-3.8554564821141227395e-07
-1.9542302229424197705e-07
5.8188644843843395194e-07
-6.7646490611613824176e-07
1.5834368387719220501e-06
-1.344503266788272357e-06
2.3255017469395795479e-06
-2.109678587608642127e-06
2.7688672340479613506e-06
-2.8930829346956076149e-06
2.9162456817792768039e-06
-3.6281663830356312593e-06
2.7936995918592873245e-06
-4.2610723679650034434e-06
2.4404731535973624596e-06
-4.7501930693278076958e-06
1.9022172293356705836e-06
-5.0653878476300344245e-06
1.2269480582311098772e-06
-5.187286229150121551e-06
4.6354946718734946428e-07
-5.1070013170459447515e-06
-3.3797324827518944183e-07
-4.826445211952246154e-06
-1.1254074405253835625e-06
-4.3592806489056959321e-06
-1.8433073390172276331e-06
-3.7323604933379748144e-06
-2.4329093939683696896e-06
-2.9872951999599714734e-06
-2.8338639403447874523e-06
-2.1815683591531576346e-06
-2.9886046773514631783e-06
-1.3884694115393732421e-06
-2.8498205633346584445e-06
-6.9517182601525136117e-07
-2.390495601930711599e-06
-1.9866854145232921883e-07
-1.6162187439579406842e-06
-5.8421432941811583963e-07
-2.2914182912463501177e-07
8.1102758312812426576e-07
-7.8699184098633353638e-07
2.1412861151951465123e-06
-1.5514668062045507966e-06
3.0899769242138010663e-06
-2.4147695704890955561e-06
3.6321709184736856993e-06
-3.2867858458981571309e-06
3.7882628486205267255e-06
-4.0955287776120335002e-06
3.6024428438716651943e-06
-4.7857376431951759234e-06
3.1306818295401152077e-06
-5.3166199259776481973e-06
2.4330991137378712661e-06
-5.6595158771366845191e-06
1.5698435725474116329e-06
-5.7960492981666579323e-06
6.0008255242408843619e-07
-5.7171373366791211439e-06
-4.1688511700899654008e-07
-5.4230776287891149098e-06
-1.4194663255634307003e-06
-4.9247906377855430902e-06
-2.3415930029932413984e-06
-4.2461258586765314438e-06
-3.1115731617369427392e-06
-3.4268999536049885206e-06
-3.653089873095148289e-06
-2.5260049533347297467e-06
-3.8895005672534837477e-06
-1.623560279587667244e-06
-3.7522659486879302895e-06
-8.2085157091904591411e-07
-3.1932040091671011943e-06
-2.3682004878922489524e-07
-2.2002491537041131012e-06
-8.2103400069789145412e-07
-2.6348231755552524982e-07
1.0745098741429074523e-06
-8.9633517112429456477e-07
2.7741380150322971382e-06
-1.7506176793180906103e-06
3.9442588959357343943e-06
-2.6999027852886828247e-06
4.5814563339643190419e-06
-3.6438696554867827378e-06
4.7322306031589520133e-06
-4.507312492759783497e-06
4.4658864952333564324e-06
-5.2363652228806336947e-06
3.8597350134788314634e-06
-5.7938430671088115071e-06
2.9905771239462492267e-06
-6.1548995974721720093e-06
1.9309000370693508629e-06
-6.3037087047234073386e-06
7.4889131775791967218e-07
-6.2315627537606657266e-06
-4.8903151828253216049e-07
-5.9366096944412082996e-06
-1.7144194379584395292e-06
-5.4253585339096922123e-06
-2.8528434101400413893e-06
-4.7159660987578012913e-06
-3.8209642841487550391e-06
-3.8430785571381990693e-06
-4.5259763786428395849e-06
-2.8635558318979281576e-06
-4.8690231712613966719e-06
-1.8617541908605521859e-06
-4.754068125435339605e-06
-9.5235581786737455529e-07
-4.1026026997680997005e-06
-2.7818744089838332321e-07
-2.874417102042242753e-06
-1.0992210220573721028e-06
-2.9974253000362040589e-07
1.3742530331374441234e-06
-1.0061240875584789065e-06
3.4805190727880177359e-06
-1.9408070513869864531e-06
4.8789410488896596969e-06
-2.9578005015752597726e-06
5.5984494317070030499e-06
-3.9485566527354656516e-06
5.7229871363099505476e-06
-4.8382767740535906508e-06
5.3556073558042795071e-06
-5.5786204978394752602e-06
4.6000794440686060521e-06
-6.1398539900171876082e-06
3.5518112183292250409e-06
-6.5040335906514182984e-06
2.2950801498052349874e-06
-6.6599672300341190197e-06
9.0482520170790846599e-07
-6.6002459376300925793e-06
-5.4875302253577585859e-07
-6.3204973177406627543e-06
-1.9941685219164709652e-06
-5.8210318656221386206e-06
-3.3523089843495248103e-06
-5.1110674311689273657e-06
-4.5309280707937643899e-06
-4.2155595549192530479e-06
-5.4214830838253008727e-06
-3.1841585931635857566e-06
-5.9004231730407875677e-06
-2.1008361650398783862e-06
-5.8373902708187715556e-06
-1.0913700516289669994e-06
-5.1120689547239509865e-06
-3.2436781546016234871e-07
-3.641419322791630621e-06
-1.4235887471751221149e-06
-3.3924033035686603673e-07
1.713494158184076745e-06
-1.1167424176986089115e-06
4.2580214487887227951e-06
-2.1166416959488504772e-06
5.8788398725707157098e-06
-3.1726721450754420407e-06
6.6544793234661968166e-06
-4.171811099520138523e-06
6.7221259945920578603e-06
-5.0453848503429948776e-06
6.22918148165291127e-06
-5.7564591950264826594e-06
5.311154340865284002e-06
-6.2878190445193999798e-06
4.0831716729651507165e-06
-6.6323028878934207076e-06
2.6395647255736394518e-06
-6.7859683938636169293e-06
1.0584914942390186858e-06
-6.7440385721055376436e-06
-5.9068234750746075698e-07
-6.4995624666448364415e-06
-2.2386446822050176848e-06
-6.0449612157752589291e-06
-3.8069106245635787986e-06
-5.3768948072904336623e-06
-5.1989946165200422951e-06
-4.5049539723601782798e-06
-6.2934234127480295908e-06
-3.4642679449585979767e-06
-6.941108250582348266e-06
-2.3308840693414861116e-06
-6.9707733014572172213e-06
-1.2365571178798926646e-06
-6.2063954971998723121e-06
-3.7650522151505813313e-07
-4.5014711193265828339e-06
-1.8000941829131377249e-06
-3.8380465938363614596e-07
2.0972992451562258377e-06
-1.2273224048997375009e-06
5.1015401033953616111e-06
-2.2669354848187003556e-06
6.9184531563334436538e-06
-3.3169137294468044742e-06
7.7044572961268429544e-06
-4.266764173122358054e-06
7.6719762081478399353e-06
-5.0626764690155353428e-06
7.0250938895016739455e-06
-5.6870563343413656473e-06
5.9355345338237632362e-06
-6.1413790955034402313e-06
4.5374948155962515896e-06
-6.4336437244663758242e-06
2.9318298762657879166e-06
-6.5700541864728540615e-06
1.1949027641169433343e-06
-6.5501387633570229917e-06
-6.1059682227476249396e-07
-6.3648049271121389132e-06
-2.4239778533096570589e-06
-5.99741867338083939e-06
-4.1742967789276145353e-06
-5.4286512719273851996e-06
-5.7677622896151347728e-06
-4.6463353202036988216e-06
-7.0757394934315470639e-06
-3.6615511557735386202e-06
-7.9258920605806683991e-06
-2.5309752788775103505e-06
-8.1013484553450964231e-06
-1.3824453766444713206e-06
-7.3549247083554928828e-06
-4.3540750439313044146e-07
-5.448508609490156585e-06
-2.2355019256107790683e-06
-4.3642269876432825928e-07
2.5337218099993030052e-06
-1.3349539080644611274e-06
6.0000724069217704882e-06
-2.3709900854392439381e-06
7.9544900611665928284e-06
-3.3447019579663605513e-06
8.6781693602388361929e-06
-4.1608742583087441998e-06
8.4881484334605918757e-06
-4.7933675116609068982e-06
7.6575872148276508816e-06
-5.2538124451465093118e-06
6.3959797362538519804e-06
-5.5689495475521354678e-06
4.8526322013682883903e-06
-5.7659866475640162545e-06
3.1288672365928624646e-06
-5.8638020845353731238e-06
1.2927186509770694693e-06
-5.8679522789525362776e-06
-6.0644582188324965619e-07
-5.7683060970574321071e-06
-2.5236230514565110985e-06
-5.5392015897367433182e-06
-4.403400552906242609e-06
-5.1431606154690403775e-06
-6.1638030547464245227e-06
-4.5403347106909979229e-06
-7.6785655649646761592e-06
-3.7066834928619926711e-06
-8.759543404512849709e-06
-2.663442896944887225e-06
-9.144588840939384781e-06
-1.5170944714030993866e-06
-8.5012726496669702836e-06
-5.0158282448102169497e-07
-6.4640197823796836222e-06
-2.7370847862854222495e-06
-5.0183237898634904667e-07
3.0355536881327998686e-06
-1.4314687895323461722e-06
6.9297097231435125003e-06
-2.3898171835499049531e-06
8.9128393498379738667e-06
-3.1793542244341699984e-06
9.4677069248671103007e-06
-3.7423036725314974237e-06
9.0510980306194329623e-06
-4.0976506241222008037e-06
8.0129342989249647227e-06
-4.2969122448057081633e-06
6.5952416716530810848e-06
-4.3973189650966696424e-06
4.9530393061384118714e-06
-4.4473771798103660439e-06
3.1789257180862657293e-06
-4.4796170779424226925e-06
1.3249587416281640405e-06
-4.5067941085617793597e-06
-5.7926841313817435253e-07
-4.5195820040781348114e-06
-2.5108344288079704477e-06
-4.4853720897306168942e-06
-4.4376095614766211371e-06
-4.3493482900714578799e-06
-6.2998261557773860077e-06
-4.040865257524126411e-06
-7.987048359421407062e-06
-3.4903418084248263035e-06
-9.3100669825128512356e-06
-2.6633777363006402728e-06
-9.9715530867740422407e-06
-1.6168965400387005929e-06
-9.5477538035994694753e-06
-5.7480350282890526093e-07
-7.506112554376477794e-06
-3.3118881109054624101e-06
-5.8572849385848311609e-07
3.6212816767847874375e-06
-1.4934215042830536795e-06
7.837403298765007568e-06
-2.2462389988083438641e-06
9.6656575832137686991e-06
-2.6889427943032295495e-06
9.9104113242413112287e-06
-2.8368105781905499427e-06
9.1989661111392521421e-06
-2.7744784163235072116e-06
7.9506023111947449135e-06
-2.6013003468056365059e-06
6.4220639072319035787e-06
-2.4054739666255972461e-06
4.7572134080235918736e-06
-2.2543503869859118181e-06
3.0278026059777174989e-06
-2.1918380988045833094e-06
1.2624467316683405264e-06
-2.2375908297716699415e-06
-5.3351552121574038407e-07
-2.3855312204218444629e-06
-2.36289373891386407e-06
-2.6010862155173626828e-06
-4.2220539730359891561e-06
-2.8180808647540912019e-06
-6.0828307578338667672e-06
-2.9385348129563865697e-06
-7.8665938381955842284e-06
-2.8423704120789196673e-06
-9.4062312243474160837e-06
-2.4188841987498413161e-06
-1.0395039513452256381e-05
-1.6344915917051026982e-06
-1.0332146700868223313e-05
-6.5156520828620347115e-07
-8.4890390246948978415e-06
-3.9634530688044998726e-06
-6.8764133303998990775e-07
4.3089227735195410727e-06
-1.4533572704291207965e-06
8.6031195014385116718e-06
-1.7807797561192436078e-06
9.9930804841075960752e-06
-1.6406296915718476509e-06
9.7702617179490786205e-06
-1.1703339919985156809e-06
8.7286707359767867488e-06
-5.3625319946789910571e-07
7.3165217037026458209e-06
1.1674427662568976336e-07
5.7690666468025187045e-06
6.7910810449100313756e-07
4.1948499942530103661e-06
1.074821185231307065e-06
2.6320901002212558568e-06
1.2558981085144783181e-06
1.0813703271024231937e-06
1.1985690885908113492e-06
-4.7618620451613722224e-07
9.0309422252147698347e-07
-2.0674187301136403409e-06
3.9779055305755478837e-07
-3.7167500830977742993e-06
-2.5294730539039856046e-07
-5.4320924526359796398e-06
-9.3870878856309830868e-07
-7.1808317951205736173e-06
-1.4978847428079453539e-06
-8.8470548956321939807e-06
-1.7326253362727502666e-06
-1.0160298967975075644e-05
-1.469570078973588737e-06
-1.0595202337291079604e-05
-7.1554543897192429586e-07
-9.2430640416858112022e-06
-4.6789983379389222699e-06
-7.7369370352697734014e-07
5.0826165662742154856e-06
-1.1238996414274867488e-06
8.9533255331820338173e-06
-6.5881012467080989424e-07
9.527991053288253494e-06
3.7889495622697847084e-07
8.7325568094014855341e-06
1.6852877672325352913e-06
7.4222781359778801141e-06
3.0204298718137754262e-06
5.9813797570767599995e-06
4.2191711177042277744e-06
4.5703255220836294011e-06
5.1763485601269921199e-06
3.2376727826341939891e-06
5.8273517407558855891e-06
1.9810873719902454722e-06
6.1330386978134604359e-06
7.7568397010264591067e-07
6.0712218392760562089e-06
-4.1436881496803399583e-07
5.6345104753446280567e-06
-1.6307070613774433886e-06
4.8345393844185128121e-06
-2.9167788526967359649e-06
3.7135505041585818579e-06
-4.3111033930048374353e-06
2.3641879297791939737e-06
-5.8314688765073483348e-06
9.552955682710039575e-07
-7.4381621503984370113e-06
-2.4818394818253318217e-07
-8.956819332808000592e-06
-8.9978352328479290727e-07
-9.9436030459172688165e-06
-7.0876030070153564097e-07
-9.4340877544154775616e-06
-5.3877586129119458522e-06
-6.8893271372680716544e-07
5.7715495580802488745e-06
-1.6478347985426151757e-08
8.2808712084554296539e-06
1.7979463769243753791e-06
7.713566207845480398e-06
4.0761826011457395633e-06
6.4543204672765875984e-06
6.3683852182963389659e-06
5.1300754998657121156e-06
8.4292350017736781246e-06
3.9205300172804872613e-06
1.0135007633881960778e-05
2.8645529272618040019e-06
1.1428514902521209008e-05
1.9441655753595113952e-06
1.2283991971832094919e-05
1.1256105107510546673e-06
1.2686920674460787467e-05
3.7275569839486920639e-07
1.2624013064979573828e-05
-3.5146063856732301105e-07
1.2080241721989685172e-05
-1.0869352057897496319e-06
1.1041281576078227451e-05
-1.8778183962073683504e-06
9.5042659695387522425e-06
-2.7740876112628846129e-06
7.5008486394615509813e-06
-3.8280513376740525231e-06
5.1391807700642984618e-06
-5.0764939732497744155e-06
2.6686939066981691145e-06
-6.4863322516149859889e-06
5.6460806627173398982e-07
-7.8395173062166184706e-06
-4.4587047533841103423e-07
-8.4236096274877804381e-06
-5.8336291536107062197e-06
1.8387473491213641408e-07
5.5876750767387182878e-06
3.0471735632754544219e-06
5.4175724344020113394e-06
6.8795524739670761789e-06
3.8811871764211052497e-06
1.0566168384265955883e-05
2.7677043523166779831e-06
1.3739886770558737257e-05
1.9563569518371034255e-06
1.6314219092202266197e-05
1.3461976317073912081e-06
1.830036247205695489e-05
8.7840953958185076502e-07
1.9736452294782476971e-05
5.0807575191058273189e-07
2.0657717863029124078e-05
2.0434497778324892154e-07
2.1084644138475780445e-05
-5.4170414192553995765e-08
2.1017815147058883783e-05
-2.8463129918326375945e-07
2.0437386955623584373e-05
-5.0650656456904481104e-07
1.9301120631932821859e-05
-7.4155169344960690814e-07
1.7547806577768923356e-05
-1.0207733219510048958e-06
1.5108739826389051676e-05
-1.388984431542946763e-06
1.194169075499397503e-05
-1.9094447068807521131e-06
8.1145818611428101194e-06
-2.6592231475961245224e-06
3.9936164214790779539e-06
-3.718551819921904826e-06
6.6741259512155664819e-07
-5.0974060330844541262e-06
-5.1662165847667949957e-06
4.1259298874506378943e-06
1.4617452454721103629e-06
1.1133580713526981793e-05
-1.5900783885246515563e-06
1.7009005019356999619e-05
-1.9942372103512759845e-06
2.148544229284732077e-05
-1.7087330782359443862e-06
2.4826786585370879285e-05
-1.3849875156742513564e-06
2.7283626521167133081e-05
-1.1106424201517261945e-06
2.9053829952841117053e-05
-8.9179392228164243181e-07
3.0273711973922878458e-05
-7.1180624558551809267e-07
3.102826939572464254e-05
-5.5021240423684643968e-07
3.1363128753326364388e-05
-3.8902969421213546942e-07
3.1291307035756095434e-05
-2.1280941730434678678e-07
3.0792540520527993727e-05
-7.7397597587800032311e-09
2.9811533274137545595e-05
2.3945589570741119927e-07
2.8247727435458863448e-05
5.4303278219698242812e-07
2.5941067124828825417e-05
9.1767603451147725406e-07
2.265812485436802026e-05
1.3734976741631784523e-06
1.8106711621628512334e-05
1.8921902015751906329e-06
1.2023279647954844264e-05
2.3648802128423766078e-06
4.6827264783766770203e-06
2.2431470317934083457e-06
-4.8349005137833501821e-07
2.1434816587224866371e-05
3.1374940775535844345e-05
3.598377546567786136e-05
3.873432270837418197e-05
4.0500381055044968757e-05
4.1672619418242965155e-05
4.246255237500597959e-05
4.2981184547536290636e-05
4.3287684029592998617e-05
4.3411815892073921867e-05
4.3362619016666649702e-05
4.3130281603786691674e-05
4.2682747791134131778e-05
4.1955608245766410236e-05
4.0827557796824030095e-05
3.9064675153033710743e-05
3.6203615103984726996e-05
3.1217023604944356971e-05
2.0812014877656767782e-05
)
;

boundaryField
{
    movingWall
    {
        type            calculated;
        value           nonuniform List<scalar> 
20
(
-1.9973071515912654649e-05
-1.1530202844483705677e-05
-6.6030722594302433925e-06
-4.4592807474605804729e-06
-3.1510463102208719383e-06
-2.2828811694457375063e-06
-1.6817271176334448372e-06
-1.230438461407964288e-06
-8.5671173891886632206e-07
-5.1316126112256280101e-07
-1.6361213022883713879e-07
2.2459817680791425297e-07
6.8699031798674009776e-07
1.2701729408739184299e-06
2.0457269962827724706e-06
3.1363806728479036243e-06
4.7532504593818143419e-06
7.3514717824155350573e-06
1.2648155644490263427e-05
2.0328524824487162215e-05
)
;
    }
    fixedWalls
    {
        type            calculated;
        value           uniform 0;
    }
    frontAndBack
    {
        type            empty;
    }
}


// ************************************************************************* //
