/*--------------------------------*- C++ -*----------------------------------*\
| =========                 |                                                 |
| \\      /  F ield         | OpenFOAM: The Open Source CFD Toolbox           |
|  \\    /   O peration     | Version:  2412                                  |
|   \\  /    A nd           | Website:  www.openfoam.com                      |
|    \\/     M anipulation  |                                                 |
\*---------------------------------------------------------------------------*/
FoamFile
{
    version     2.0;
    format      ascii;
    arch        "LSB;label=32;scalar=64";
    class       volVectorField;
    location    "0.4";
    object      U;
}
// * * * * * * * * * * * * * * * * * * * * * * * * * * * * * * * * * * * * * //

dimensions      [0 1 -1 0 0 0 0];

internalField   nonuniform List<vector> 
400
(
(0.00019467735426764197558 -0.00019232462558983089824 0)
(4.8663188521615911939e-05 0.00012521994278555406113 0)
(-0.0011182964231280885167 0.00050128603601689604701 0)
(-0.003088839750432300843 0.00075819976608149954305 0)
(-0.0055236511788333900186 0.00088075167419285446853 0)
(-0.0080958798192656711984 0.00088517027088498329186 0)
(-0.010520342712436582186 0.00079370104449792363861 0)
(-0.012564960131335931731 0.00062870310809788067762 0)
(-0.014052969069084569886 0.00041058569575686427186 0)
(-0.01486139833292402998 0.00015820097438334679079 0)
(-0.014920583992776294616 -0.00010981966405304418785 0)
(-0.014216137301942197158 -0.00037368990138329479314 0)
(-0.012793097574952717183 -0.000611421186886974442 0)
(-0.01076119108295440184 -0.00079833289919800111932 0)
(-0.0082994551757616524812 -0.00090736055564381835024 0)
(-0.005657316841563093425 -0.00091077198928163946145 0)
(-0.0031468448312677063487 -0.00078428891842006456456 0)
(-0.0011214854736968510318 -0.00051433709259189814341 0)
(6.5270375751157378753e-05 -0.00012358474328900498568 0)
(0.00020324370562221387632 0.00019952231327262072652 0)
(-0.00010068227943168259544 -6.9580284047154417146e-05 0)
(-0.0014717812194820971243 0.0014931606172348132772 0)
(-0.0049711183574843711627 0.0031209367862468665941 0)
(-0.010044851840126562542 0.0042555953339418473025 0)
(-0.016013966066326303095 0.0047958627542812760219 0)
(-0.022212745581201745471 0.0047726026563633203864 0)
(-0.028018703820879165695 0.004265153542361617249 0)
(-0.032900838938443123516 0.003370924405748654696 0)
(-0.036444119467168731297 0.0021911182058965898538 0)
(-0.038357419823453829666 0.00082745563524639340926 0)
(-0.038478273709505808609 -0.00061580985544739839585 0)
(-0.036778968694893214575 -0.0020285484693246093671 0)
(-0.033374260162363771076 -0.0032924093493478926754 0)
(-0.028528726502460775155 -0.0042812259694409342606 0)
(-0.022659824476021269563 -0.0048659005257938609673 0)
(-0.016329416811209997856 -0.0049264201008099523307 0)
(-0.010209540721137543365 -0.0043745488104072402513 0)
(-0.0050167432124173325786 -0.0031895599454047126459 0)
(-0.0014607155478379707514 -0.0015017720985452168679 0)
(-8.9740476901174114294e-05 8.9711305785593483363e-05 0)
(-0.00047995857795233388748 0.0010597051479814480375 0)
(-0.0032137602880108881095 0.0050057016140164856469 0)
(-0.0089950737100415647379 0.0086869841554360806984 0)
(-0.016799857964661667892 0.011224923535468557881 0)
(-0.025660234411264408461 0.012392538583261719989 0)
(-0.034695648343400026237 0.012223669182911664488 0)
(-0.043074573128353707552 0.010877720703495198304 0)
(-0.050078659291969335188 0.0085739393712041794132 0)
(-0.05514249904989829143 0.0055558230215672728056 0)
(-0.057868378362142210147 0.0020780586140183745884 0)
(-0.058035030027670922448 -0.0015940950444962612934 0)
(-0.055606433324436821408 -0.0051811413044713866896 0)
(-0.050741200690047852384 -0.0083872546737410475642 0)
(-0.043800353700194173678 -0.010904586031892239684 0)
(-0.035348811646659025754 -0.012428544735315478348 0)
(-0.026141265677835038433 -0.012689478368673540176 0)
(-0.017071985815749399912 -0.011506371826639971365 0)
(-0.0090904259010969514637 -0.0088643724132959258316 0)
(-0.0032128642780510905698 -0.0050502585969129524038 0)
(-0.00046750083221900403004 -0.0010289006911580729584 0)
(-0.0008050005827227077037 0.0031135869037180892958 0)
(-0.0048025324222821146394 0.010453776474230942403 0)
(-0.012741079924629663406 0.016726093476678836197 0)
(-0.023054399114670928728 0.020906819514454534625 0)
(-0.034464840101460010591 0.022708854446772386987 0)
(-0.045910027395398497752 0.022203420311570128826 0)
(-0.056410241318240024466 0.019658714405344248494 0)
(-0.065127240554222837199 0.015446488497975712287 0)
(-0.071405419487814716928 0.0099867664237224523099 0)
(-0.07478467706942312776 0.0037243151209325753292 0)
(-0.075008066717185337136 -0.0028755037466146361746 0)
(-0.072030695355386406553 -0.0093232167013634209551 0)
(-0.066030315471814537975 -0.015103664872903287131 0)
(-0.057417548529268731816 -0.019684814539849677245 0)
(-0.046841250606628102859 -0.022544794148749700002 0)
(-0.035178809695543496183 -0.023225016465205767374 0)
(-0.023485788864404100879 -0.02141528060502108019 0)
(-0.012915593604946384171 -0.017068339263236798758 0)
(-0.0048206077950119045894 -0.010565111929444993485 0)
(-0.00079117135099311100468 -0.0030748122770462233203 0)
(-0.0010812966387437430472 0.0059660806942324869431 0)
(-0.0062314761200523679022 0.017654275273498092752 0)
(-0.016190351549963011291 0.026989272771600174294 0)
(-0.028837478249197204261 0.032956784330397490002 0)
(-0.042568351909314523784 0.03531449895116695048 0)
(-0.056146442022558050444 0.034239650163687775086 0)
(-0.068475727313175485667 0.030155090441850176952 0)
(-0.078641409964588931958 0.023617143289540728363 0)
(-0.085940213389903666319 0.015246106816516540733 0)
(-0.089882072606714297214 0.00569554764040981331 0)
(-0.090190555424355292602 -0.0043529352878767958029 0)
(-0.086808798702513512158 -0.014183926251433321558 0)
(-0.079911299801920854247 -0.023044464726501685814 0)
(-0.069919896571465661728 -0.030154489702464357115 0)
(-0.057520035646844956678 -0.034742755268373809452 0)
(-0.043666351260148915381 -0.036118515549366431161 0)
(-0.029546071727939167417 -0.033784634559375067986 0)
(-0.016516618818026056886 -0.027584251947960308077 0)
(-0.0062974818061539601655 -0.017887729760229984649 0)
(-0.0010709602469782374817 -0.0059299967773042165306 0)
(-0.001332045468859612827 0.0095357557893640219893 0)
(-0.0075602719206779890604 0.026495060057461109621 0)
(-0.01942557494004984453 0.03935621409829867523 0)
(-0.034255732721808013208 0.047228994814777790212 0)
(-0.050112315791161578249 0.05002887650120741575 0)
(-0.065591863706187261696 0.048127832496452631339 0)
(-0.079507920097735218512 0.04216532202697443471 0)
(-0.090905331215202167527 0.032920970418224913823 0)
(-0.099069614318785068074 0.021236030677290122781 0)
(-0.10350892164280535435 0.0079808985857774822348 0)
(-0.10394117256741904065 -0.0059458282531962324338 0)
(-0.10029382534773299829 -0.019603714768189589579 0)
(-0.092716738966543560396 -0.03199858268401913064 0)
(-0.081607157571395083639 -0.042088128083709160088 0)
(-0.067643803533337348854 -0.048820268699153866743 0)
(-0.051818118184960598738 -0.05121796005398696755 0)
(-0.035423817047113524692 -0.048517439721590088775 0)
(-0.020022924738138082879 -0.04034862866268781878 0)
(-0.0077271485033161158712 -0.026953799688144482877 0)
(-0.001336150311656565063 -0.0095338406082654779394 0)
(-0.0015784020875474877223 0.013784286701834961436 0)
(-0.0088513659832766926339 0.036898193198062305409 0)
(-0.022535837006192202536 0.05371331497704730229 0)
(-0.039398010572100891635 0.063565925293955341524 0)
(-0.057164312780676816705 0.066652090515932196912 0)
(-0.074281840681021796269 0.063643694073539730516 0)
(-0.089508004592486936635 0.055471543822731013418 0)
(-0.10188957266417567049 0.043181999656759929851 0)
(-0.1107415864897327018 0.027854018959555287144 0)
(-0.11560163806463893965 0.010571875178877483681 0)
(-0.1161980052363804361 -0.0075636381407615735362 0)
(-0.11243997680603425027 -0.02540532999855377172 0)
(-0.10443108055602258466 -0.041730404430763673451 0)
(-0.092505374641169424432 -0.055231333746453892264 0)
(-0.077285327188420349653 -0.064546598053462647671 0)
(-0.059748674580244832966 -0.068350415353868460011 0)
(-0.041257144124525899076 -0.065513161452581056277 0)
(-0.023564262447087251651 -0.055322231985045738911 0)
(-0.0091950838801796875438 -0.037754837706823793364 0)
(-0.0016142116333601860736 -0.013882718918222097804 0)
(-0.0018383171828591912331 0.018709398196387835162 0)
(-0.010156679150261263556 0.0488177346642719584 0)
(-0.025583029574756971369 0.069942139755267279666 0)
(-0.044288675620506312569 0.081766003797803521458 0)
(-0.063668148556956946638 0.084912473355133147312 0)
(-0.082054346150704171592 0.080478871037994365034 0)
(-0.098201991895136411803 0.069773817847884264665 0)
(-0.11121832072766948962 0.054155670147789311542 0)
(-0.12050103878185440542 0.034950917096866228329 0)
(-0.12565732396510828628 0.01344118570982056303 0)
(-0.12644787438396848378 -0.0091033261338478253105 0)
(-0.12276455046152429107 -0.031367135847077808053 0)
(-0.11464235262672967108 -0.051931373874008500413 0)
(-0.10230756840067928293 -0.069236819675750682634 0)
(-0.08626351872958316902 -0.081592905797220505182 0)
(-0.067402319922242256989 -0.087259655609646297192 0)
(-0.047088007209453837387 -0.084624106831176021393 0)
(-0.027226853410526444949 -0.072469220303531090011 0)
(-0.010771342129739541749 -0.050330701602435433395 0)
(-0.0019290576397306747648 -0.019021720417854364599 0)
(-0.0021286789038736835325 0.024337753528546880039 0)
(-0.011516952095476987866 0.062226765051967843079 0)
(-0.028587901168071593733 0.087894199462844865844 0)
(-0.048857606025999603117 0.10154198650508683421 0)
(-0.069401235403236283261 0.10441139386626478724 0)
(-0.088500267778371694005 0.098179177428631234092 0)
(-0.10498942032942325253 0.084629693748704368228 0)
(-0.11811916122757747105 0.065476382205645000667 0)
(-0.12744083848749601651 0.042291516574738161061 0)
(-0.13268385750423661307 0.016519968029375355772 0)
(-0.13367206415657006957 -0.010452937290279882415 0)
(-0.13028605332306694708 -0.037206021103548821138 0)
(-0.1224712160779551362 -0.062182368105188179364 0)
(-0.11029556908560483874 -0.083608974083531295562 0)
(-0.094063941049372018499 -0.099465248682066256802 0)
(-0.074481618947968508682 -0.10753730190197459404 0)
(-0.052808983326266205338 -0.10559583805271441359 0)
(-0.031025065744282594865 -0.091714950170841955113 0)
(-0.012504353750452673263 -0.064745303243300231233 0)
(-0.0023023347843603423658 -0.025034170549925172794 0)
(-0.0024703236194998836467 0.030721548940500567615 0)
(-0.012968840109185105977 0.077094559287819053317 0)
(-0.031523877755875805151 0.10734132941674146 0)
(-0.052911248357733565995 0.12244852514444876102 0)
(-0.073923617819404721652 0.12453872150229094995 0)
(-0.092897594428325000471 0.11605936548128592545 0)
(-0.10887107321202603438 0.099377049643789822087 0)
(-0.12135026544461896547 0.07659390979256240628 0)
(-0.13013047268430311121 0.049507601993469027568 0)
(-0.13512832953384307233 0.019669462514995794677 0)
(-0.13627052505316078479 -0.01149927752898560751 0)
(-0.13343997829542761369 -0.042561969115607209413 0)
(-0.12647639807199825834 -0.071912835538597535967 0)
(-0.1152377424156719038 -0.097636983874780688963 0)
(-0.099737221072358883678 -0.11741519809202689839 0)
(-0.080359590008533487993 -0.12852066983523172117 0)
(-0.058102639728913892114 -0.12796829911152374226 0)
(-0.034874216273126597276 -0.11286882872507998654 0)
(-0.014419141995074000531 -0.081043683995807733189 0)
(-0.0027567842597032228731 -0.032031419898583789185 0)
(-0.0028962135636911492259 0.037943717344245377066 0)
(-0.014555390823603513162 0.093358248768173543453 0)
(-0.03430413443258159556 0.12790353344434660099 0)
(-0.056082865390473413125 0.14378160348544394287 0)
(-0.076495799987412349541 0.14436531858927087457 0)
(-0.094110894536892197859 0.13310488462731265291 0)
(-0.10834470968505338639 0.11305317400659029015 0)
(-0.11910204410772318173 0.086711357725723289813 0)
(-0.12652651629830635738 0.056053082849798770149 0)
(-0.13079308135875378216 0.022651485440875956251 0)
(-0.13197620812218141539 -0.012141827503588746226 0)
(-0.12998309902070917521 -0.046992928801574990194 0)
(-0.12454307275631482099 -0.080370437097599917164 0)
(-0.11526169935773825093 -0.1103325408654512868 0)
(-0.10176520567567809428 -0.13434265165197575853 0)
(-0.083957254847194323633 -0.14916700547138470045 0)
(-0.062352101266355729192 -0.15094121812356225965 0)
(-0.038547974473349802538 -0.13551205237109065216 0)
(-0.01651363370697293137 -0.099191200745081406498 0)
(-0.0033212919595949595697 -0.040145493259094125471 0)
(-0.0034641023822751778119 0.046137434232027776937 0)
(-0.016334099523865219794 0.11088201492566081285 0)
(-0.036738679382531280737 0.14893875813384110929 0)
(-0.057726546780801336889 0.1644371862140042162 0)
(-0.075929174251367567705 0.16250890650072832844 0)
(-0.090427989447558990155 0.14786604387261842453 0)
(-0.10125292092057036619 0.12432133245873819294 0)
(-0.10886987387941006455 0.094737715143776254911 0)
(-0.11387205659218227471 0.061172547016508461992 0)
(-0.11675403571308486106 0.025104722250003722039 0)
(-0.117778197816398561 -0.012311841880961424053 0)
(-0.1169048007351110724 -0.04998549554382002158 0)
(-0.11376782783611111283 -0.086612408613192401474 0)
(-0.10770587147618271295 -0.12038622960368754178 0)
(-0.097885393481600302401 -0.14870287273775911752 0)
(-0.083563910037129568442 -0.16790822723171142106 0)
(-0.064493515917201801879 -0.17319651773434252551 0)
(-0.041596807405191837947 -0.15883517587842646557 0)
(-0.018744701114212107551 -0.11898405550107098161 0)
(-0.0040377473440036592764 -0.049526816993313474424 0)
(-0.0042737003262281955673 0.055524431470090493401 0)
(-0.018365600013773016735 0.12937721873071558742 0)
(-0.038412747484289300193 0.16935851740753324335 0)
(-0.056690042291774579708 0.18270766874871510743 0)
(-0.070309721856313234234 0.17697326231452356615 0)
(-0.079292752307397559863 0.1583609924375031508 0)
(-0.084563292227557776415 0.13142928977895299014 0)
(-0.087296761692002955435 0.099280179996781861562 0)
(-0.088598122128599549052 0.063904116862926615972 0)
(-0.089304046272981843502 0.026540329372272408737 0)
(-0.089881901333136546284 -0.011992551837030305042 0)
(-0.090374814506919962098 -0.050987963161381405497 0)
(-0.090365059227627927974 -0.089535714315289338661 0)
(-0.088963068809935499925 -0.12616720819696719547 0)
(-0.084867571319953052922 -0.15844254412742136973 0)
(-0.076570997935297147041 -0.18249957011160763964 0)
(-0.062764078906966058735 -0.19266864615274889583 0)
(-0.043183234292058357562 -0.18139397135532692173 0)
(-0.020983092774269899994 -0.13989918144690638435 0)
(-0.0049670700077429404823 -0.060344173252598970469 0)
(-0.0054760211170493981389 0.066436827177793700283 0)
(-0.020623895768187697208 0.14817663474933048806 0)
(-0.038371958474183315291 0.18727035657635457411 0)
(-0.050842026632403253261 0.19596971724910181023 0)
(-0.05650024654169914784 0.18496369988016383989 0)
(-0.056881300874639724452 0.16201913563208836244 0)
(-0.054065089235893981634 0.1322407474628997659 0)
(-0.049996323275026753608 0.098714420332761634858 0)
(-0.046253792421859396544 0.06314623533652102827 0)
(-0.043957590787899902818 0.026375637009841936681 0)
(-0.043748299458431214037 -0.011233963919289288377 0)
(-0.04577172251637225131 -0.049473328607962573089 0)
(-0.049636181418605346272 -0.087969122859944404169 0)
(-0.054344730716279036897 -0.12580313459876921178 0)
(-0.058244487895269647648 -0.16100610738881446227 0)
(-0.059080584093134651258 -0.18988672374155202149 0)
(-0.054264320050696569775 -0.20624161211562139218 0)
(-0.041737494847468664672 -0.20069956843593492191 0)
(-0.022874716445171784651 -0.1607707357666323944 0)
(-0.0061775182612611376221 -0.072735438568060556408 0)
(-0.0072155494313485765701 0.079239648969238032916 0)
(-0.022642946788616294396 0.1656585316795964602 0)
(-0.034339250840249663232 0.19930092070341848265 0)
(-0.036114561468299256897 0.20023832482585526837 0)
(-0.029279521715216170336 0.18273531366427214762 0)
(-0.017470304284301692299 0.15574974833229671134 0)
(-0.0039905910097603990161 0.12441904780641493966 0)
(0.0086052357209362544122 0.091393453920228281961 0)
(0.018484422911365542413 0.057829096828136958286 0)
(0.024429271956323765635 0.024029245676835602613 0)
(0.025732168650258270548 -0.010155246723596852293 0)
(0.022149687663589451986 -0.045044401457702380742 0)
(0.013939631827268391881 -0.08086508904570663403 0)
(0.0019854230031836235526 -0.1174102866834320219 0)
(-0.012010959374959401941 -0.15351135349912578554 0)
(-0.025332675608348415724 -0.18619373926352081328 0)
(-0.034182070938471836863 -0.20942220118478502289 0)
(-0.034214634617842722142 -0.21257767549366246573 0)
(-0.023433809591628620983 -0.17913507369237730016 0)
(-0.0076530059178861794406 -0.086620215764750013721 0)
(-0.0092934672146403642101 0.094508345054105435956 0)
(-0.022410284067063555163 0.17856155494326447775 0)
(-0.020892220261692701772 0.19992876436122047901 0)
(-0.0046844642846426438193 0.19001954325412467872 0)
(0.02001506682720994787 0.16590738548355207782 0)
(0.047376483277797913629 0.13649389747973295073 0)
(0.073341780373449405594 0.10602363743570783483 0)
(0.095296223524022644069 0.076169566539184843657 0)
(0.11162310667519367846 0.047300433118147633405 0)
(0.12133921743630259049 0.01914019063222579739 0)
(0.1238562826193024824 -0.0089111101119173866808 0)
(0.11887515085342688359 -0.037601330806415679542 0)
(0.10640391577073500529 -0.06767449820778637104 0)
(0.08690978756368109015 -0.09965044851692106409 0)
(0.061632200520819024891 -0.13339626191371112274 0)
(0.033067297675133562607 -0.16726679447329409478 0)
(0.0055308854582935794431 -0.19650852701070761763 0)
(-0.014539776856616610026 -0.21078799247468665845 0)
(-0.019945322668856332871 -0.19063872571173279269 0)
(-0.0089167173335789606803 -0.10175845801192916207 0)
(-0.009771096769714547256 0.11383104843735579459 0)
(-0.013344592723118558694 0.18130671738786799385 0)
(0.014227119681773644361 0.18142007768221826702 0)
(0.057904933777674347239 0.15922925286571568138 0)
(0.10512029619566781724 0.13090594576270092597 0)
(0.14942738572708291755 0.1027199279128942766 0)
(0.18749168569747090562 0.076797616150887010322 0)
(0.2176744449708992446 0.053385200420737619065 0)
(0.23925909655631991124 0.032015495011614415743 0)
(0.25191146437487782483 0.011972818959202997935 0)
(0.25538399028064945329 -0.0075696197377466394735 0)
(0.24939659287045470859 -0.027525532134148343599 0)
(0.23362939015925582309 -0.048883582969738589852 0)
(0.20783749452372066169 -0.072662523283688204567 0)
(0.17217287011447357514 -0.099714503542007615344 0)
(0.12782913325070777155 -0.13012535669767846813 0)
(0.077983769963445012663 -0.1617371345655948256 0)
(0.029219399405981706652 -0.18730806390566545616 0)
(-0.0052702840914381730852 -0.18853154225838564262 0)
(-0.0076557075171650688927 -0.11826306646611459139 0)
(0.0011130754688622283843 0.12888576590538972089 0)
(0.024397350122334356126 0.15478066208424060002 0)
(0.097023396725991001288 0.12867501790259550098 0)
(0.17627983895289392469 0.099900085678182801163 0)
(0.24580917778932254159 0.07514201686356396237 0)
(0.30329896033003561628 0.054894412654261738604 0)
(0.34878170841350042419 0.038513361025628474466 0)
(0.382856523428418416 0.025032939538778296862 0)
(0.40631325747812058191 0.013575716358849436102 0)
(0.41975069380983209832 0.0034104968575086758859 0)
(0.42339837954881537341 -0.006119729925960149669 0)
(0.41707117428136564197 -0.015682258814132685881 0)
(0.40014499764484562361 -0.026054815830224283685 0)
(0.37155603483819982236 -0.03820822661267696263 0)
(0.3299387499456799544 -0.05337437918282531002 0)
(0.27406079687400181077 -0.072960043818118200387 0)
(0.2034061195726363791 -0.097965481402391918486 0)
(0.11986239412225667411 -0.12745307828453961152 0)
(0.039292280268100353291 -0.15281205668359454375 0)
(0.0056961852790018436404 -0.12542840440631897181 0)
(0.069997456925753903656 0.060664220752159894734 0)
(0.15372345754230692938 0.031271649562235152853 0)
(0.28268719882525455978 0.0083366816520888068626 0)
(0.3899516382943800652 -0.0010222602205644493959 0)
(0.46760937616572456621 -0.0048084315471366044156 0)
(0.5244710071700012799 -0.0064323656756534210166 0)
(0.56606124863617557352 -0.0071210786036092115284 0)
(0.59554259266431519571 -0.0073005727599800510769 0)
(0.61502657857808051833 -0.0070732579144179574815 0)
(0.62580175948401906005 -0.0064234487874823007272 0)
(0.62844755707469468486 -0.0053046030570018569764 0)
(0.62289875211938194877 -0.0036776368407112317201 0)
(0.60842344742714460359 -0.001553695874448430235 0)
(0.58349998254534451991 0.00096235145566515899532 0)
(0.54561622009296506519 0.0035837972064274793878 0)
(0.49103852059746749825 0.0056305832719684718174 0)
(0.4137912949071970159 0.0055284614335443550692 0)
(0.30451334673099689221 -0.00030052591061713578718 0)
(0.16898554221865635938 -0.018889801038952595824 0)
(0.072228926906916318673 -0.045844787682283748287 0)
(0.39775366626767177936 -0.21080955090743130897 0)
(0.55408084377026423084 -0.18974782193466499525 0)
(0.67675003319527848866 -0.13632858957195109761 0)
(0.75171693643343506785 -0.098457501381427239839 0)
(0.795451102158176937 -0.072250480710610645585 0)
(0.82360201501259600043 -0.053765758645608938138 0)
(0.84265407605442743666 -0.040387700459775362216 0)
(0.85544852434559692789 -0.030113720267437013578 0)
(0.86353749031358417731 -0.021508366645608220646 0)
(0.8677706921320499367 -0.01354085358625949434 0)
(0.86852245459220400736 -0.0054004205153117407212 0)
(0.86578751783109442197 0.0036404561076802126503 0)
(0.85916867204753977205 0.014353527963653089222 0)
(0.84775026861206881357 0.027695306123069418636 0)
(0.82980524619773776696 0.045027577435861457222 0)
(0.8021508831993933164 0.068429075888868096111 0)
(0.75797548472587294999 0.10102243847317250725 0)
(0.68093042481071264227 0.14774054205343786772 0)
(0.54924521682487814633 0.21282951195173560599 0)
(0.36766979312126646384 0.23264477339332229056 0)
)
;

boundaryField
{
    movingWall
    {
        type            fixedValue;
        value           uniform (1 0 0);
    }
    fixedWalls
    {
        type            fixedValue;
        value           uniform (0 0 0);
    }
    frontAndBack
    {
        type            empty;
    }
}


// ************************************************************************* //
